<?xml version="1.0" encoding="UTF-8"?>

<!-- generated on 2017/3/13 11:13:54 by SUMO gui Version 0.27.0
<?xml version="1.0" encoding="UTF-8"?>

<configuration xmlns:xsi="http://www.w3.org/2001/XMLSchema-instance" xsi:noNamespaceSchemaLocation="http://sumo.dlr.de/xsd/sumo-gui.exeConfiguration.xsd">

    <input>
        <net-file value="C:\Users\DaHong\Desktop\YANGS_SDN\SDNData\route4\MySUMONet.net.xml"/>
        <route-files value="C:\Users\DaHong\Desktop\YANGS_SDN\SDNData\route4\ex_ROU.rou.xml"/>
    </input>

    <output>
        <netstate-dump value="C:\Users\DaHong\Desktop\YANGS_SDN\SDNData\route4\ex_sumo.sumo.tr"/>
        <emission-output value="C:\Users\DaHong\Desktop\YANGS_SDN\SDNData\route4\output-emissions.xml"/>
        <tripinfo-output value="C:\Users\DaHong\Desktop\YANGS_SDN\SDNData\route4\output-tripinfos.xml"/>
        <vehroute-output value="C:\Users\DaHong\Desktop\YANGS_SDN\SDNData\route4\output-vehroutes.xml"/>
    </output>

    <time>
        <begin value="0"/>
        <end value="2000"/>
    </time>

    <processing>
        <route-steps value="-1"/>
        <time-to-teleport value="-1"/>
    </processing>

    <report>
        <print-options value="false"/>
    </report>

    <random_number>
        <seed value="23423"/>
    </random_number>

</configuration>
-->

<netstate xmlns:xsi="http://www.w3.org/2001/XMLSchema-instance" xsi:noNamespaceSchemaLocation="http://sumo.dlr.de/xsd/netstate_file.xsd">
    <timestep time="0.00">
        <edge id="edge-1-4">
            <lane id="edge-1-4_0">
                <vehicle id="flow3.0" pos="5.10" speed="0.00"/>
            </lane>
            <lane id="edge-1-4_1"/>
        </edge>
        <edge id="edge-10-9">
            <lane id="edge-10-9_0">
                <vehicle id="flow4.0" pos="5.10" speed="0.00"/>
            </lane>
            <lane id="edge-10-9_1"/>
        </edge>
        <edge id="edge-11-8">
            <lane id="edge-11-8_0">
                <vehicle id="flow0.0" pos="5.10" speed="0.00"/>
            </lane>
            <lane id="edge-11-8_1"/>
        </edge>
        <edge id="edge-12-9">
            <lane id="edge-12-9_0">
                <vehicle id="flow2.0" pos="5.10" speed="0.00"/>
            </lane>
            <lane id="edge-12-9_1"/>
        </edge>
        <edge id="edge-2-5">
            <lane id="edge-2-5_0">
                <vehicle id="flow1.0" pos="5.10" speed="0.00"/>
            </lane>
            <lane id="edge-2-5_1"/>
        </edge>
        <edge id="edge-3-4">
            <lane id="edge-3-4_0">
                <vehicle id="flow5.0" pos="5.10" speed="0.00"/>
            </lane>
            <lane id="edge-3-4_1"/>
        </edge>
        <edge id="edge-6-5">
            <lane id="edge-6-5_0">
                <vehicle id="flow6.0" pos="5.10" speed="0.00"/>
            </lane>
            <lane id="edge-6-5_1"/>
        </edge>
        <edge id="edge-7-8">
            <lane id="edge-7-8_0">
                <vehicle id="flow7.0" pos="5.10" speed="0.00"/>
            </lane>
            <lane id="edge-7-8_1"/>
        </edge>
    </timestep>
    <timestep time="1.00">
        <edge id="edge-1-4">
            <lane id="edge-1-4_0">
                <vehicle id="flow3.0" pos="7.38" speed="2.28"/>
            </lane>
            <lane id="edge-1-4_1"/>
        </edge>
        <edge id="edge-10-9">
            <lane id="edge-10-9_0">
                <vehicle id="flow4.0" pos="6.73" speed="1.63"/>
            </lane>
            <lane id="edge-10-9_1"/>
        </edge>
        <edge id="edge-11-8">
            <lane id="edge-11-8_0">
                <vehicle id="flow0.0" pos="7.64" speed="2.54"/>
            </lane>
            <lane id="edge-11-8_1"/>
        </edge>
        <edge id="edge-12-9">
            <lane id="edge-12-9_0">
                <vehicle id="flow2.0" pos="6.93" speed="1.83"/>
            </lane>
            <lane id="edge-12-9_1"/>
        </edge>
        <edge id="edge-2-5">
            <lane id="edge-2-5_0">
                <vehicle id="flow1.0" pos="7.06" speed="1.96"/>
            </lane>
            <lane id="edge-2-5_1"/>
        </edge>
        <edge id="edge-3-4">
            <lane id="edge-3-4_0">
                <vehicle id="flow5.0" pos="7.64" speed="2.54"/>
            </lane>
            <lane id="edge-3-4_1"/>
        </edge>
        <edge id="edge-6-5">
            <lane id="edge-6-5_0">
                <vehicle id="flow6.0" pos="6.77" speed="1.67"/>
            </lane>
            <lane id="edge-6-5_1"/>
        </edge>
        <edge id="edge-7-8">
            <lane id="edge-7-8_0">
                <vehicle id="flow7.0" pos="6.54" speed="1.44"/>
            </lane>
            <lane id="edge-7-8_1"/>
        </edge>
    </timestep>
    <timestep time="2.00">
        <edge id="edge-1-4">
            <lane id="edge-1-4_0">
                <vehicle id="flow3.0" pos="11.91" speed="4.53"/>
            </lane>
            <lane id="edge-1-4_1"/>
        </edge>
        <edge id="edge-10-9">
            <lane id="edge-10-9_0">
                <vehicle id="flow4.0" pos="10.23" speed="3.50"/>
            </lane>
            <lane id="edge-10-9_1"/>
        </edge>
        <edge id="edge-11-8">
            <lane id="edge-11-8_0">
                <vehicle id="flow0.0" pos="12.20" speed="4.56"/>
            </lane>
            <lane id="edge-11-8_1"/>
        </edge>
        <edge id="edge-12-9">
            <lane id="edge-12-9_0">
                <vehicle id="flow2.0" pos="10.76" speed="3.83"/>
            </lane>
            <lane id="edge-12-9_1"/>
        </edge>
        <edge id="edge-2-5">
            <lane id="edge-2-5_0">
                <vehicle id="flow1.0" pos="10.75" speed="3.69"/>
            </lane>
            <lane id="edge-2-5_1"/>
        </edge>
        <edge id="edge-3-4">
            <lane id="edge-3-4_0">
                <vehicle id="flow5.0" pos="12.77" speed="5.13"/>
            </lane>
            <lane id="edge-3-4_1"/>
        </edge>
        <edge id="edge-6-5">
            <lane id="edge-6-5_0">
                <vehicle id="flow6.0" pos="10.08" speed="3.31"/>
            </lane>
            <lane id="edge-6-5_1"/>
        </edge>
        <edge id="edge-7-8">
            <lane id="edge-7-8_0">
                <vehicle id="flow7.0" pos="9.87" speed="3.33"/>
            </lane>
            <lane id="edge-7-8_1"/>
        </edge>
    </timestep>
    <timestep time="3.00">
        <edge id="edge-1-4">
            <lane id="edge-1-4_0">
                <vehicle id="flow3.0" pos="18.22" speed="6.31"/>
            </lane>
            <lane id="edge-1-4_1"/>
        </edge>
        <edge id="edge-10-9">
            <lane id="edge-10-9_0">
                <vehicle id="flow4.0" pos="15.93" speed="5.70"/>
            </lane>
            <lane id="edge-10-9_1"/>
        </edge>
        <edge id="edge-11-8">
            <lane id="edge-11-8_0">
                <vehicle id="flow0.0" pos="18.69" speed="6.49"/>
            </lane>
            <lane id="edge-11-8_1"/>
        </edge>
        <edge id="edge-12-9">
            <lane id="edge-12-9_0">
                <vehicle id="flow2.0" pos="17.13" speed="6.37"/>
            </lane>
            <lane id="edge-12-9_1"/>
        </edge>
        <edge id="edge-2-5">
            <lane id="edge-2-5_0">
                <vehicle id="flow1.0" pos="16.14" speed="5.40"/>
            </lane>
            <lane id="edge-2-5_1"/>
        </edge>
        <edge id="edge-3-4">
            <lane id="edge-3-4_0">
                <vehicle id="flow5.0" pos="20.09" speed="7.31"/>
            </lane>
            <lane id="edge-3-4_1"/>
        </edge>
        <edge id="edge-6-5">
            <lane id="edge-6-5_0">
                <vehicle id="flow6.0" pos="14.85" speed="4.77"/>
            </lane>
            <lane id="edge-6-5_1"/>
        </edge>
        <edge id="edge-7-8">
            <lane id="edge-7-8_0">
                <vehicle id="flow7.0" pos="15.73" speed="5.85"/>
            </lane>
            <lane id="edge-7-8_1"/>
        </edge>
    </timestep>
    <timestep time="4.00">
        <edge id="edge-1-4">
            <lane id="edge-1-4_0">
                <vehicle id="flow3.0" pos="26.74" speed="8.52"/>
            </lane>
            <lane id="edge-1-4_1"/>
        </edge>
        <edge id="edge-10-9">
            <lane id="edge-10-9_0">
                <vehicle id="flow4.0" pos="24.19" speed="8.26"/>
            </lane>
            <lane id="edge-10-9_1"/>
        </edge>
        <edge id="edge-11-8">
            <lane id="edge-11-8_0">
                <vehicle id="flow0.0" pos="27.47" speed="8.78"/>
            </lane>
            <lane id="edge-11-8_1"/>
        </edge>
        <edge id="edge-12-9">
            <lane id="edge-12-9_0">
                <vehicle id="flow2.0" pos="25.39" speed="8.26"/>
            </lane>
            <lane id="edge-12-9_1"/>
        </edge>
        <edge id="edge-2-5">
            <lane id="edge-2-5_0">
                <vehicle id="flow1.0" pos="23.63" speed="7.48"/>
            </lane>
            <lane id="edge-2-5_1"/>
        </edge>
        <edge id="edge-3-4">
            <lane id="edge-3-4_0">
                <vehicle id="flow5.0" pos="28.85" speed="8.76"/>
            </lane>
            <lane id="edge-3-4_1"/>
        </edge>
        <edge id="edge-6-5">
            <lane id="edge-6-5_0">
                <vehicle id="flow6.0" pos="21.14" speed="6.30"/>
            </lane>
            <lane id="edge-6-5_1"/>
        </edge>
        <edge id="edge-7-8">
            <lane id="edge-7-8_0">
                <vehicle id="flow7.0" pos="22.96" speed="7.23"/>
            </lane>
            <lane id="edge-7-8_1"/>
        </edge>
    </timestep>
    <timestep time="5.00">
        <edge id="edge-1-4">
            <lane id="edge-1-4_0">
                <vehicle id="flow3.0" pos="37.70" speed="10.96"/>
            </lane>
            <lane id="edge-1-4_1"/>
        </edge>
        <edge id="edge-10-9">
            <lane id="edge-10-9_0">
                <vehicle id="flow4.0" pos="34.87" speed="10.69"/>
            </lane>
            <lane id="edge-10-9_1"/>
        </edge>
        <edge id="edge-11-8">
            <lane id="edge-11-8_0">
                <vehicle id="flow0.0" pos="38.42" speed="10.95"/>
            </lane>
            <lane id="edge-11-8_1"/>
        </edge>
        <edge id="edge-12-9">
            <lane id="edge-12-9_0">
                <vehicle id="flow2.0" pos="35.36" speed="9.97"/>
            </lane>
            <lane id="edge-12-9_1"/>
        </edge>
        <edge id="edge-2-5">
            <lane id="edge-2-5_0">
                <vehicle id="flow1.0" pos="33.67" speed="10.04"/>
            </lane>
            <lane id="edge-2-5_1"/>
        </edge>
        <edge id="edge-3-4">
            <lane id="edge-3-4_0">
                <vehicle id="flow5.0" pos="38.97" speed="10.12"/>
            </lane>
            <lane id="edge-3-4_1"/>
        </edge>
        <edge id="edge-6-5">
            <lane id="edge-6-5_0">
                <vehicle id="flow6.0" pos="29.83" speed="8.69"/>
            </lane>
            <lane id="edge-6-5_1"/>
        </edge>
        <edge id="edge-7-8">
            <lane id="edge-7-8_0">
                <vehicle id="flow7.0" pos="31.80" speed="8.84"/>
            </lane>
            <lane id="edge-7-8_1"/>
        </edge>
    </timestep>
    <timestep time="6.00">
        <edge id="edge-1-4">
            <lane id="edge-1-4_0">
                <vehicle id="flow3.0" pos="50.20" speed="12.50"/>
            </lane>
            <lane id="edge-1-4_1"/>
        </edge>
        <edge id="edge-10-9">
            <lane id="edge-10-9_0">
                <vehicle id="flow4.0" pos="47.85" speed="12.97"/>
            </lane>
            <lane id="edge-10-9_1"/>
        </edge>
        <edge id="edge-11-8">
            <lane id="edge-11-8_0">
                <vehicle id="flow0.0" pos="51.23" speed="12.81"/>
            </lane>
            <lane id="edge-11-8_1"/>
        </edge>
        <edge id="edge-12-9">
            <lane id="edge-12-9_0">
                <vehicle id="flow2.0" pos="47.71" speed="12.35"/>
            </lane>
            <lane id="edge-12-9_1"/>
        </edge>
        <edge id="edge-2-5">
            <lane id="edge-2-5_0">
                <vehicle id="flow1.0" pos="46.02" speed="12.35"/>
            </lane>
            <lane id="edge-2-5_1"/>
        </edge>
        <edge id="edge-3-4">
            <lane id="edge-3-4_0">
                <vehicle id="flow5.0" pos="51.34" speed="12.37"/>
            </lane>
            <lane id="edge-3-4_1"/>
        </edge>
        <edge id="edge-6-5">
            <lane id="edge-6-5_0">
                <vehicle id="flow6.0" pos="39.86" speed="10.03"/>
            </lane>
            <lane id="edge-6-5_1"/>
        </edge>
        <edge id="edge-7-8">
            <lane id="edge-7-8_0">
                <vehicle id="flow7.0" pos="42.71" speed="10.91"/>
            </lane>
            <lane id="edge-7-8_1"/>
        </edge>
    </timestep>
    <timestep time="7.00">
        <edge id="edge-1-4">
            <lane id="edge-1-4_0">
                <vehicle id="flow3.0" pos="64.80" speed="14.60"/>
            </lane>
            <lane id="edge-1-4_1"/>
        </edge>
        <edge id="edge-10-9">
            <lane id="edge-10-9_0">
                <vehicle id="flow4.0" pos="61.60" speed="13.75"/>
            </lane>
            <lane id="edge-10-9_1"/>
        </edge>
        <edge id="edge-11-8">
            <lane id="edge-11-8_0">
                <vehicle id="flow0.0" pos="65.01" speed="13.78"/>
            </lane>
            <lane id="edge-11-8_1"/>
        </edge>
        <edge id="edge-12-9">
            <lane id="edge-12-9_0">
                <vehicle id="flow2.0" pos="61.76" speed="14.05"/>
            </lane>
            <lane id="edge-12-9_1"/>
        </edge>
        <edge id="edge-2-5">
            <lane id="edge-2-5_0">
                <vehicle id="flow1.0" pos="60.20" speed="14.18"/>
            </lane>
            <lane id="edge-2-5_1"/>
        </edge>
        <edge id="edge-3-4">
            <lane id="edge-3-4_0">
                <vehicle id="flow5.0" pos="65.38" speed="14.04"/>
            </lane>
            <lane id="edge-3-4_1"/>
        </edge>
        <edge id="edge-6-5">
            <lane id="edge-6-5_0">
                <vehicle id="flow6.0" pos="51.63" speed="11.77"/>
            </lane>
            <lane id="edge-6-5_1"/>
        </edge>
        <edge id="edge-7-8">
            <lane id="edge-7-8_0">
                <vehicle id="flow7.0" pos="56.10" speed="13.39"/>
            </lane>
            <lane id="edge-7-8_1"/>
        </edge>
    </timestep>
    <timestep time="8.00">
        <edge id="edge-1-4">
            <lane id="edge-1-4_0">
                <vehicle id="flow3.0" pos="79.76" speed="14.96"/>
            </lane>
            <lane id="edge-1-4_1"/>
        </edge>
        <edge id="edge-10-9">
            <lane id="edge-10-9_0">
                <vehicle id="flow4.0" pos="76.40" speed="14.80"/>
            </lane>
            <lane id="edge-10-9_1"/>
        </edge>
        <edge id="edge-11-8">
            <lane id="edge-11-8_0">
                <vehicle id="flow0.0" pos="79.18" speed="14.17"/>
            </lane>
            <lane id="edge-11-8_1"/>
        </edge>
        <edge id="edge-12-9">
            <lane id="edge-12-9_0">
                <vehicle id="flow2.0" pos="76.52" speed="14.76"/>
            </lane>
            <lane id="edge-12-9_1"/>
        </edge>
        <edge id="edge-2-5">
            <lane id="edge-2-5_0">
                <vehicle id="flow1.0" pos="73.96" speed="13.76"/>
            </lane>
            <lane id="edge-2-5_1"/>
        </edge>
        <edge id="edge-3-4">
            <lane id="edge-3-4_0">
                <vehicle id="flow5.0" pos="80.16" speed="14.78"/>
            </lane>
            <lane id="edge-3-4_1"/>
        </edge>
        <edge id="edge-6-5">
            <lane id="edge-6-5_0">
                <vehicle id="flow6.0" pos="65.24" speed="13.61"/>
            </lane>
            <lane id="edge-6-5_1"/>
        </edge>
        <edge id="edge-7-8">
            <lane id="edge-7-8_0">
                <vehicle id="flow7.0" pos="70.46" speed="14.36"/>
            </lane>
            <lane id="edge-7-8_1"/>
        </edge>
    </timestep>
    <timestep time="9.00">
        <edge id="edge-1-4">
            <lane id="edge-1-4_0">
                <vehicle id="flow3.0" pos="94.32" speed="14.56"/>
            </lane>
            <lane id="edge-1-4_1"/>
        </edge>
        <edge id="edge-10-9">
            <lane id="edge-10-9_0">
                <vehicle id="flow4.0" pos="91.00" speed="14.59"/>
            </lane>
            <lane id="edge-10-9_1"/>
        </edge>
        <edge id="edge-11-8">
            <lane id="edge-11-8_0">
                <vehicle id="flow0.0" pos="92.89" speed="13.71"/>
            </lane>
            <lane id="edge-11-8_1"/>
        </edge>
        <edge id="edge-12-9">
            <lane id="edge-12-9_0">
                <vehicle id="flow2.0" pos="91.29" speed="14.77"/>
            </lane>
            <lane id="edge-12-9_1"/>
        </edge>
        <edge id="edge-2-5">
            <lane id="edge-2-5_0">
                <vehicle id="flow1.0" pos="88.87" speed="14.91"/>
            </lane>
            <lane id="edge-2-5_1"/>
        </edge>
        <edge id="edge-3-4">
            <lane id="edge-3-4_0">
                <vehicle id="flow5.0" pos="93.96" speed="13.79"/>
            </lane>
            <lane id="edge-3-4_1"/>
        </edge>
        <edge id="edge-6-5">
            <lane id="edge-6-5_0">
                <vehicle id="flow6.0" pos="79.53" speed="14.29"/>
            </lane>
            <lane id="edge-6-5_1"/>
        </edge>
        <edge id="edge-7-8">
            <lane id="edge-7-8_0">
                <vehicle id="flow7.0" pos="85.09" speed="14.64"/>
            </lane>
            <lane id="edge-7-8_1"/>
        </edge>
    </timestep>
    <timestep time="10.00">
        <edge id="edge-1-4">
            <lane id="edge-1-4_0">
                <vehicle id="flow3.1" pos="5.10" speed="0.00"/>
                <vehicle id="flow3.0" pos="108.86" speed="14.54"/>
            </lane>
            <lane id="edge-1-4_1"/>
        </edge>
        <edge id="edge-10-9">
            <lane id="edge-10-9_0">
                <vehicle id="flow4.1" pos="5.10" speed="0.00"/>
                <vehicle id="flow4.0" pos="105.06" speed="14.06"/>
            </lane>
            <lane id="edge-10-9_1"/>
        </edge>
        <edge id="edge-11-8">
            <lane id="edge-11-8_0">
                <vehicle id="flow0.1" pos="5.10" speed="0.00"/>
                <vehicle id="flow0.0" pos="107.78" speed="14.90"/>
            </lane>
            <lane id="edge-11-8_1"/>
        </edge>
        <edge id="edge-12-9">
            <lane id="edge-12-9_0">
                <vehicle id="flow2.1" pos="5.10" speed="0.00"/>
                <vehicle id="flow2.0" pos="106.23" speed="14.94"/>
            </lane>
            <lane id="edge-12-9_1"/>
        </edge>
        <edge id="edge-2-5">
            <lane id="edge-2-5_0">
                <vehicle id="flow1.1" pos="5.10" speed="0.00"/>
                <vehicle id="flow1.0" pos="103.64" speed="14.77"/>
            </lane>
            <lane id="edge-2-5_1"/>
        </edge>
        <edge id="edge-3-4">
            <lane id="edge-3-4_0">
                <vehicle id="flow5.1" pos="5.10" speed="0.00"/>
                <vehicle id="flow5.0" pos="108.69" speed="14.73"/>
            </lane>
            <lane id="edge-3-4_1"/>
        </edge>
        <edge id="edge-6-5">
            <lane id="edge-6-5_0">
                <vehicle id="flow6.1" pos="5.10" speed="0.00"/>
                <vehicle id="flow6.0" pos="93.79" speed="14.26"/>
            </lane>
            <lane id="edge-6-5_1"/>
        </edge>
        <edge id="edge-7-8">
            <lane id="edge-7-8_0">
                <vehicle id="flow7.1" pos="5.10" speed="0.00"/>
                <vehicle id="flow7.0" pos="99.98" speed="14.89"/>
            </lane>
            <lane id="edge-7-8_1"/>
        </edge>
    </timestep>
    <timestep time="11.00">
        <edge id="edge-1-4">
            <lane id="edge-1-4_0">
                <vehicle id="flow3.1" pos="6.56" speed="1.46"/>
                <vehicle id="flow3.0" pos="123.73" speed="14.86"/>
            </lane>
            <lane id="edge-1-4_1"/>
        </edge>
        <edge id="edge-10-9">
            <lane id="edge-10-9_0">
                <vehicle id="flow4.1" pos="7.31" speed="2.21"/>
                <vehicle id="flow4.0" pos="120.03" speed="14.97"/>
            </lane>
            <lane id="edge-10-9_1"/>
        </edge>
        <edge id="edge-11-8">
            <lane id="edge-11-8_0">
                <vehicle id="flow0.1" pos="6.43" speed="1.33"/>
                <vehicle id="flow0.0" pos="122.31" speed="14.53"/>
            </lane>
            <lane id="edge-11-8_1"/>
        </edge>
        <edge id="edge-12-9">
            <lane id="edge-12-9_0">
                <vehicle id="flow2.1" pos="7.16" speed="2.06"/>
                <vehicle id="flow2.0" pos="120.46" speed="14.24"/>
            </lane>
            <lane id="edge-12-9_1"/>
        </edge>
        <edge id="edge-2-5">
            <lane id="edge-2-5_0">
                <vehicle id="flow1.1" pos="6.63" speed="1.53"/>
                <vehicle id="flow1.0" pos="117.97" speed="14.33"/>
            </lane>
            <lane id="edge-2-5_1"/>
        </edge>
        <edge id="edge-3-4">
            <lane id="edge-3-4_0">
                <vehicle id="flow5.1" pos="7.19" speed="2.09"/>
                <vehicle id="flow5.0" pos="122.89" speed="14.20"/>
            </lane>
            <lane id="edge-3-4_1"/>
        </edge>
        <edge id="edge-6-5">
            <lane id="edge-6-5_0">
                <vehicle id="flow6.1" pos="7.15" speed="2.05"/>
                <vehicle id="flow6.0" pos="107.91" speed="14.12"/>
            </lane>
            <lane id="edge-6-5_1"/>
        </edge>
        <edge id="edge-7-8">
            <lane id="edge-7-8_0">
                <vehicle id="flow7.1" pos="7.42" speed="2.32"/>
                <vehicle id="flow7.0" pos="114.61" speed="14.62"/>
            </lane>
            <lane id="edge-7-8_1"/>
        </edge>
    </timestep>
    <timestep time="12.00">
        <edge id="edge-1-4">
            <lane id="edge-1-4_0">
                <vehicle id="flow3.1" pos="9.76" speed="3.20"/>
                <vehicle id="flow3.0" pos="138.12" speed="14.39"/>
            </lane>
            <lane id="edge-1-4_1"/>
        </edge>
        <edge id="edge-10-9">
            <lane id="edge-10-9_0">
                <vehicle id="flow4.1" pos="11.98" speed="4.67"/>
                <vehicle id="flow4.0" pos="134.12" speed="14.09"/>
            </lane>
            <lane id="edge-10-9_1"/>
        </edge>
        <edge id="edge-11-8">
            <lane id="edge-11-8_0">
                <vehicle id="flow0.1" pos="9.91" speed="3.48"/>
                <vehicle id="flow0.0" pos="136.77" speed="14.47"/>
            </lane>
            <lane id="edge-11-8_1"/>
        </edge>
        <edge id="edge-12-9">
            <lane id="edge-12-9_0">
                <vehicle id="flow2.1" pos="11.43" speed="4.27"/>
                <vehicle id="flow2.0" pos="134.20" speed="13.74"/>
            </lane>
            <lane id="edge-12-9_1"/>
        </edge>
        <edge id="edge-2-5">
            <lane id="edge-2-5_0">
                <vehicle id="flow1.1" pos="10.01" speed="3.38"/>
                <vehicle id="flow1.0" pos="131.84" speed="13.86"/>
            </lane>
            <lane id="edge-2-5_1"/>
        </edge>
        <edge id="edge-3-4">
            <lane id="edge-3-4_0">
                <vehicle id="flow5.1" pos="11.29" speed="4.10"/>
                <vehicle id="flow5.0" pos="136.96" speed="14.08"/>
            </lane>
            <lane id="edge-3-4_1"/>
        </edge>
        <edge id="edge-6-5">
            <lane id="edge-6-5_0">
                <vehicle id="flow6.1" pos="11.25" speed="4.10"/>
                <vehicle id="flow6.0" pos="122.27" speed="14.36"/>
            </lane>
            <lane id="edge-6-5_1"/>
        </edge>
        <edge id="edge-7-8">
            <lane id="edge-7-8_0">
                <vehicle id="flow7.1" pos="11.15" speed="3.72"/>
                <vehicle id="flow7.0" pos="128.79" speed="14.19"/>
            </lane>
            <lane id="edge-7-8_1"/>
        </edge>
    </timestep>
    <timestep time="13.00">
        <edge id="edge-1-4">
            <lane id="edge-1-4_0">
                <vehicle id="flow3.1" pos="14.39" speed="4.63"/>
                <vehicle id="flow3.0" pos="152.92" speed="14.80"/>
            </lane>
            <lane id="edge-1-4_1"/>
        </edge>
        <edge id="edge-10-9">
            <lane id="edge-10-9_0">
                <vehicle id="flow4.1" pos="18.16" speed="6.18"/>
                <vehicle id="flow4.0" pos="147.84" speed="13.73"/>
            </lane>
            <lane id="edge-10-9_1"/>
        </edge>
        <edge id="edge-11-8">
            <lane id="edge-11-8_0">
                <vehicle id="flow0.1" pos="15.12" speed="5.21"/>
                <vehicle id="flow0.0" pos="151.27" speed="14.49"/>
            </lane>
            <lane id="edge-11-8_1"/>
        </edge>
        <edge id="edge-12-9">
            <lane id="edge-12-9_0">
                <vehicle id="flow2.1" pos="18.25" speed="6.82"/>
                <vehicle id="flow2.0" pos="148.58" speed="14.38"/>
            </lane>
            <lane id="edge-12-9_1"/>
        </edge>
        <edge id="edge-2-5">
            <lane id="edge-2-5_0">
                <vehicle id="flow1.1" pos="15.51" speed="5.50"/>
                <vehicle id="flow1.0" pos="145.69" speed="13.85"/>
            </lane>
            <lane id="edge-2-5_1"/>
        </edge>
        <edge id="edge-3-4">
            <lane id="edge-3-4_0">
                <vehicle id="flow5.1" pos="17.81" speed="6.52"/>
                <vehicle id="flow5.0" pos="151.04" speed="14.07"/>
            </lane>
            <lane id="edge-3-4_1"/>
        </edge>
        <edge id="edge-6-5">
            <lane id="edge-6-5_0">
                <vehicle id="flow6.1" pos="17.78" speed="6.54"/>
                <vehicle id="flow6.0" pos="136.34" speed="14.07"/>
            </lane>
            <lane id="edge-6-5_1"/>
        </edge>
        <edge id="edge-7-8">
            <lane id="edge-7-8_0">
                <vehicle id="flow7.1" pos="17.10" speed="5.96"/>
                <vehicle id="flow7.0" pos="142.78" speed="13.98"/>
            </lane>
            <lane id="edge-7-8_1"/>
        </edge>
    </timestep>
    <timestep time="14.00">
        <edge id="edge-1-4">
            <lane id="edge-1-4_0">
                <vehicle id="flow3.1" pos="21.60" speed="7.21"/>
                <vehicle id="flow3.0" pos="167.21" speed="14.29"/>
            </lane>
            <lane id="edge-1-4_1"/>
        </edge>
        <edge id="edge-10-9">
            <lane id="edge-10-9_0">
                <vehicle id="flow4.1" pos="25.70" speed="7.55"/>
                <vehicle id="flow4.0" pos="161.78" speed="13.93"/>
            </lane>
            <lane id="edge-10-9_1"/>
        </edge>
        <edge id="edge-11-8">
            <lane id="edge-11-8_0">
                <vehicle id="flow0.1" pos="22.09" speed="6.97"/>
                <vehicle id="flow0.0" pos="165.15" speed="13.89"/>
            </lane>
            <lane id="edge-11-8_1"/>
        </edge>
        <edge id="edge-12-9">
            <lane id="edge-12-9_0">
                <vehicle id="flow2.1" pos="27.53" speed="9.28"/>
                <vehicle id="flow2.0" pos="162.83" speed="14.25"/>
            </lane>
            <lane id="edge-12-9_1"/>
        </edge>
        <edge id="edge-2-5">
            <lane id="edge-2-5_0">
                <vehicle id="flow1.1" pos="22.83" speed="7.33"/>
                <vehicle id="flow1.0" pos="159.80" speed="14.11"/>
            </lane>
            <lane id="edge-2-5_1"/>
        </edge>
        <edge id="edge-3-4">
            <lane id="edge-3-4_0">
                <vehicle id="flow5.1" pos="26.44" speed="8.62"/>
                <vehicle id="flow5.0" pos="165.68" speed="14.64"/>
            </lane>
            <lane id="edge-3-4_1"/>
        </edge>
        <edge id="edge-6-5">
            <lane id="edge-6-5_0">
                <vehicle id="flow6.1" pos="26.15" speed="8.37"/>
                <vehicle id="flow6.0" pos="150.78" speed="14.44"/>
            </lane>
            <lane id="edge-6-5_1"/>
        </edge>
        <edge id="edge-7-8">
            <lane id="edge-7-8_0">
                <vehicle id="flow7.1" pos="24.80" speed="7.69"/>
                <vehicle id="flow7.0" pos="157.33" speed="14.55"/>
            </lane>
            <lane id="edge-7-8_1"/>
        </edge>
    </timestep>
    <timestep time="15.00">
        <edge id="edge-1-4">
            <lane id="edge-1-4_0">