<?xml version="1.0" encoding="UTF-8"?>

<!-- generated on 2017/3/13 11:13:54 by SUMO gui Version 0.27.0
<?xml version="1.0" encoding="UTF-8"?>

<configuration xmlns:xsi="http://www.w3.org/2001/XMLSchema-instance" xsi:noNamespaceSchemaLocation="http://sumo.dlr.de/xsd/sumo-gui.exeConfiguration.xsd">

    <input>
        <net-file value="C:\Users\DaHong\Desktop\YANGS_SDN\SDNData\route4\MySUMONet.net.xml"/>
        <route-files value="C:\Users\DaHong\Desktop\YANGS_SDN\SDNData\route4\ex_ROU.rou.xml"/>
    </input>

    <output>
        <netstate-dump value="C:\Users\DaHong\Desktop\YANGS_SDN\SDNData\route4\ex_sumo.sumo.tr"/>
        <emission-output value="C:\Users\DaHong\Desktop\YANGS_SDN\SDNData\route4\output-emissions.xml"/>
        <tripinfo-output value="C:\Users\DaHong\Desktop\YANGS_SDN\SDNData\route4\output-tripinfos.xml"/>
        <vehroute-output value="C:\Users\DaHong\Desktop\YANGS_SDN\SDNData\route4\output-vehroutes.xml"/>
    </output>

    <time>
        <begin value="0"/>
        <end value="2000"/>
    </time>

    <processing>
        <route-steps value="-1"/>
        <time-to-teleport value="-1"/>
    </processing>

    <report>
        <print-options value="false"/>
    </report>

    <random_number>
        <seed value="23423"/>
    </random_number>

</configuration>
