<?xml version="1.0" encoding="UTF-8"?>

<!-- generated on Tue 14 Mar 2017 12:03:57 PM CST by SUMO gui Version 0.19.0
<?xml version="1.0" encoding="UTF-8"?>

<configuration xmlns:xsi="http://www.w3.org/2001/XMLSchema-instance" xsi:noNamespaceSchemaLocation="http://sumo-sim.org/xsd/sumo-gui.exeConfiguration.xsd">

    <input>
        <net-file value="/home/zenghaien/SUMO/route4/MySUMONet.net.xml"/>
        <route-files value="/home/zenghaien/SUMO/route4/ex_ROU.rou.xml"/>
    </input>

    <output>
        <netstate-dump value="/home/zenghaien/SUMO/route4/ex_sumo.sumo.tr"/>
        <emission-output value="/home/zenghaien/SUMO/route4/output-emissions.xml"/>
        <tripinfo-output value="/home/zenghaien/SUMO/route4/output-tripinfos.xml"/>
        <vehroute-output value="/home/zenghaien/SUMO/route4/output-vehroutes.xml"/>
        <save-state.prefix value="/home/zenghaien/SUMO/route4/state"/>
    </output>

    <time>
        <begin value="0"/>
        <end value="2000"/>
    </time>

    <processing>
        <route-steps value="-1"/>
        <time-to-teleport value="-1"/>
    </processing>

    <report>
        <print-options value="false"/>
    </report>

    <random_number>
        <seed value="23423"/>
    </random_number>

</configuration>
-->

<netstate xmlns:xsi="http://www.w3.org/2001/XMLSchema-instance" xsi:noNamespaceSchemaLocation="http://sumo-sim.org/xsd/netstate_file.xsd">
    <timestep time="0.00">
        <edge id="edge-11-8">
            <lane id="edge-11-8_0">
                <vehicle id="flow0.0" pos="5.10" speed="0.00"/>
            </lane>
            <lane id="edge-11-8_1"/>
        </edge>
    </timestep>
    <timestep time="1.00">
        <edge id="edge-11-8">
            <lane id="edge-11-8_0">
                <vehicle id="flow0.0" pos="6.54" speed="1.44"/>
            </lane>
            <lane id="edge-11-8_1"/>
        </edge>
    </timestep>
    <timestep time="2.00">
        <edge id="edge-11-8">
            <lane id="edge-11-8_0">
                <vehicle id="flow0.0" pos="9.66" speed="3.12"/>
            </lane>
            <lane id="edge-11-8_1"/>
        </edge>
    </timestep>
    <timestep time="3.00">
        <edge id="edge-11-8">
            <lane id="edge-11-8_0">
                <vehicle id="flow0.0" pos="15.31" speed="5.66"/>
            </lane>
            <lane id="edge-11-8_1"/>
        </edge>
    </timestep>
    <timestep time="4.00">
        <edge id="edge-11-8">
            <lane id="edge-11-8_0">
                <vehicle id="flow0.0" pos="22.93" speed="7.62"/>
            </lane>
            <lane id="edge-11-8_1"/>
        </edge>
    </timestep>
    <timestep time="5.00">
        <edge id="edge-11-8">
            <lane id="edge-11-8_0">
                <vehicle id="flow0.0" pos="32.38" speed="9.45"/>
            </lane>
            <lane id="edge-11-8_1"/>
        </edge>
    </timestep>
    <timestep time="6.00">
        <edge id="edge-11-8">
            <lane id="edge-11-8_0">
                <vehicle id="flow0.0" pos="44.38" speed="11.99"/>
            </lane>
            <lane id="edge-11-8_1"/>
        </edge>
    </timestep>
    <timestep time="7.00">
        <edge id="edge-11-8">
            <lane id="edge-11-8_0">
                <vehicle id="flow0.0" pos="58.00" speed="13.63"/>
            </lane>
            <lane id="edge-11-8_1"/>
        </edge>
    </timestep>
    <timestep time="8.00">
        <edge id="edge-11-8">
            <lane id="edge-11-8_0">
                <vehicle id="flow0.0" pos="72.68" speed="14.68"/>
            </lane>
            <lane id="edge-11-8_1"/>
        </edge>
    </timestep>
    <timestep time="9.00">
        <edge id="edge-11-8">
            <lane id="edge-11-8_0">
                <vehicle id="flow0.0" pos="86.97" speed="14.29"/>
            </lane>
            <lane id="edge-11-8_1"/>
        </edge>
    </timestep>
    <timestep time="10.00">
        <edge id="edge-11-8">
            <lane id="edge-11-8_0">
                <vehicle id="flow0.1" pos="5.10" speed="0.00"/>
                <vehicle id="flow0.0" pos="101.00" speed="14.03"/>
            </lane>
            <lane id="edge-11-8_1"/>
        </edge>
    </timestep>
    <timestep time="11.00">
        <edge id="edge-11-8">
            <lane id="edge-11-8_0">
                <vehicle id="flow0.1" pos="6.83" speed="1.73"/>
                <vehicle id="flow0.0" pos="116.00" speed="14.99"/>
            </lane>
            <lane id="edge-11-8_1"/>
        </edge>
    </timestep>
    <timestep time="12.00">
        <edge id="edge-11-8">
            <lane id="edge-11-8_0">
                <vehicle id="flow0.1" pos="10.56" speed="3.74"/>
                <vehicle id="flow0.0" pos="130.39" speed="14.39"/>
            </lane>
            <lane id="edge-11-8_1"/>
        </edge>
    </timestep>
    <timestep time="13.00">
        <edge id="edge-11-8">
            <lane id="edge-11-8_0">
                <vehicle id="flow0.1" pos="16.56" speed="5.99"/>
                <vehicle id="flow0.0" pos="144.65" speed="14.26"/>
            </lane>
            <lane id="edge-11-8_1"/>
        </edge>
    </timestep>
    <timestep time="14.00">
        <edge id="edge-11-8">
            <lane id="edge-11-8_0">
                <vehicle id="flow0.1" pos="24.01" speed="7.46"/>
                <vehicle id="flow0.0" pos="159.58" speed="14.92"/>
            </lane>
            <lane id="edge-11-8_1"/>
        </edge>
    </timestep>
    <timestep time="15.00">
        <edge id="edge-11-8">
            <lane id="edge-11-8_0">
                <vehicle id="flow0.1" pos="33.18" speed="9.17"/>
                <vehicle id="flow0.0" pos="174.16" speed="14.58"/>
            </lane>
            <lane id="edge-11-8_1"/>
        </edge>
    </timestep>
    <timestep time="16.00">
        <edge id="edge-11-8">
            <lane id="edge-11-8_0">
                <vehicle id="flow0.1" pos="44.28" speed="11.10"/>
                <vehicle id="flow0.0" pos="189.10" speed="14.94"/>
            </lane>
            <lane id="edge-11-8_1"/>
        </edge>
    </timestep>
    <timestep time="17.00">
        <edge id="edge-11-8">
            <lane id="edge-11-8_0">
                <vehicle id="flow0.1" pos="57.15" speed="12.88"/>
                <vehicle id="flow0.0" pos="203.70" speed="14.60"/>
            </lane>
            <lane id="edge-11-8_1"/>
        </edge>
    </timestep>
    <timestep time="18.00">
        <edge id="edge-11-8">
            <lane id="edge-11-8_0">
                <vehicle id="flow0.1" pos="71.08" speed="13.93"/>
                <vehicle id="flow0.0" pos="217.48" speed="13.78"/>
            </lane>
            <lane id="edge-11-8_1"/>
        </edge>
    </timestep>
    <timestep time="19.00">
        <edge id="edge-11-8">
            <lane id="edge-11-8_0">
                <vehicle id="flow0.1" pos="85.57" speed="14.48"/>
                <vehicle id="flow0.0" pos="231.32" speed="13.85"/>
            </lane>
            <lane id="edge-11-8_1"/>
        </edge>
    </timestep>
    <timestep time="20.00">
        <edge id="edge-11-8">
            <lane id="edge-11-8_0">
                <vehicle id="flow0.2" pos="5.10" speed="0.00"/>
                <vehicle id="flow0.1" pos="100.26" speed="14.69"/>
                <vehicle id="flow0.0" pos="245.62" speed="14.29"/>
            </lane>
            <lane id="edge-11-8_1"/>
        </edge>
    </timestep>
    <timestep time="21.00">
        <edge id="edge-11-8">
            <lane id="edge-11-8_0">
                <vehicle id="flow0.2" pos="6.71" speed="1.61"/>
                <vehicle id="flow0.1" pos="114.87" speed="14.61"/>
                <vehicle id="flow0.0" pos="260.57" speed="14.96"/>
            </lane>
            <lane id="edge-11-8_1"/>
        </edge>
    </timestep>
    <timestep time="22.00">
        <edge id="edge-11-8">
            <lane id="edge-11-8_0">
                <vehicle id="flow0.2" pos="10.87" speed="4.17"/>
                <vehicle id="flow0.1" pos="128.62" speed="13.76"/>
                <vehicle id="flow0.0" pos="275.37" speed="14.79"/>
            </lane>
            <lane id="edge-11-8_1"/>
        </edge>
    </timestep>
    <timestep time="23.00">
        <edge id="edge-11-8">
            <lane id="edge-11-8_0">
                <vehicle id="flow0.2" pos="17.47" speed="6.60"/>
                <vehicle id="flow0.1" pos="143.19" speed="14.57"/>
                <vehicle id="flow0.0" pos="289.48" speed="14.11"/>
            </lane>
            <lane id="edge-11-8_1"/>
        </edge>
    </timestep>
    <timestep time="24.00">
        <edge id="edge-11-8">
            <lane id="edge-11-8_0">
                <vehicle id="flow0.2" pos="25.42" speed="7.95"/>
                <vehicle id="flow0.1" pos="157.66" speed="14.47"/>
                <vehicle id="flow0.0" pos="304.31" speed="14.84"/>
            </lane>
            <lane id="edge-11-8_1"/>
        </edge>
    </timestep>
    <timestep time="25.00">
        <edge id="edge-11-8">
            <lane id="edge-11-8_0">
                <vehicle id="flow0.2" pos="35.74" speed="10.33"/>
                <vehicle id="flow0.1" pos="172.37" speed="14.71"/>
                <vehicle id="flow0.0" pos="318.97" speed="14.66"/>
            </lane>
            <lane id="edge-11-8_1"/>
        </edge>
    </timestep>
    <timestep time="26.00">
        <edge id="edge-11-8">
            <lane id="edge-11-8_0">
                <vehicle id="flow0.2" pos="47.62" speed="11.87"/>
                <vehicle id="flow0.1" pos="187.05" speed="14.69"/>
                <vehicle id="flow0.0" pos="333.23" speed="14.26"/>
            </lane>
            <lane id="edge-11-8_1"/>
        </edge>
    </timestep>
    <timestep time="27.00">
        <edge id="edge-11-8">
            <lane id="edge-11-8_0">
                <vehicle id="flow0.2" pos="61.16" speed="13.54"/>
                <vehicle id="flow0.1" pos="201.18" speed="14.13"/>
                <vehicle id="flow0.0" pos="348.11" speed="14.88"/>
            </lane>
            <lane id="edge-11-8_1"/>
        </edge>
    </timestep>
    <timestep time="28.00">
        <edge id="edge-11-8">
            <lane id="edge-11-8_0">
                <vehicle id="flow0.2" pos="74.94" speed="13.78"/>
                <vehicle id="flow0.1" pos="215.29" speed="14.10"/>
                <vehicle id="flow0.0" pos="362.34" speed="14.22"/>
            </lane>
            <lane id="edge-11-8_1"/>
        </edge>
    </timestep>
    <timestep time="29.00">
        <edge id="edge-11-8">
            <lane id="edge-11-8_0">
                <vehicle id="flow0.2" pos="89.30" speed="14.36"/>
                <vehicle id="flow0.1" pos="229.89" speed="14.60"/>
                <vehicle id="flow0.0" pos="376.09" speed="13.75"/>
            </lane>
            <lane id="edge-11-8_1"/>
        </edge>
    </timestep>
    <timestep time="30.00">
        <edge id="edge-11-8">
            <lane id="edge-11-8_0">
                <vehicle id="flow0.3" pos="5.10" speed="0.00"/>
                <vehicle id="flow0.2" pos="103.06" speed="13.76"/>
                <vehicle id="flow0.1" pos="244.67" speed="14.78"/>
                <vehicle id="flow0.0" pos="390.33" speed="14.25"/>
            </lane>
            <lane id="edge-11-8_1"/>
        </edge>
    </timestep>
    <timestep time="31.00">
        <edge id="edge-11-8">
            <lane id="edge-11-8_0">
                <vehicle id="flow0.3" pos="7.66" speed="2.56"/>
                <vehicle id="flow0.2" pos="117.86" speed="14.80"/>
                <vehicle id="flow0.1" pos="258.83" speed="14.17"/>
                <vehicle id="flow0.0" pos="405.09" speed="14.76"/>
            </lane>
            <lane id="edge-11-8_1"/>
        </edge>
    </timestep>
    <timestep time="32.00">
        <edge id="edge-11-8">
            <lane id="edge-11-8_0">
                <vehicle id="flow0.3" pos="12.74" speed="5.08"/>
                <vehicle id="flow0.2" pos="131.66" speed="13.79"/>
                <vehicle id="flow0.1" pos="273.12" speed="14.29"/>
                <vehicle id="flow0.0" pos="419.73" speed="14.64"/>
            </lane>
            <lane id="edge-11-8_1"/>
        </edge>
    </timestep>
    <timestep time="33.00">
        <edge id="edge-11-8">
            <lane id="edge-11-8_0">
                <vehicle id="flow0.3" pos="19.98" speed="7.24"/>
                <vehicle id="flow0.2" pos="146.25" speed="14.59"/>
                <vehicle id="flow0.1" pos="286.83" speed="13.71"/>
                <vehicle id="flow0.0" pos="434.50" speed="14.77"/>
            </lane>
            <lane id="edge-11-8_1"/>
        </edge>
    </timestep>
    <timestep time="34.00">
        <edge id="edge-11-8">
            <lane id="edge-11-8_0">
                <vehicle id="flow0.3" pos="29.58" speed="9.60"/>
                <vehicle id="flow0.2" pos="160.98" speed="14.73"/>
                <vehicle id="flow0.1" pos="301.09" speed="14.26"/>
                <vehicle id="flow0.0" pos="449.39" speed="14.89"/>
            </lane>
            <lane id="edge-11-8_1"/>
        </edge>
    </timestep>
    <timestep time="35.00">
        <edge id="edge-11-8">
            <lane id="edge-11-8_0">
                <vehicle id="flow0.3" pos="41.32" speed="11.74"/>
                <vehicle id="flow0.2" pos="175.04" speed="14.06"/>
                <vehicle id="flow0.1" pos="315.99" speed="14.90"/>
                <vehicle id="flow0.0" pos="464.33" speed="14.94"/>
            </lane>
            <lane id="edge-11-8_1"/>
        </edge>
    </timestep>
    <timestep time="36.00">
        <edge id="edge-11-8">
            <lane id="edge-11-8_0">
                <vehicle id="flow0.3" pos="55.12" speed="13.79"/>
                <vehicle id="flow0.2" pos="189.16" speed="14.12"/>
                <vehicle id="flow0.1" pos="330.71" speed="14.72"/>
                <vehicle id="flow0.0" pos="478.95" speed="14.62"/>
            </lane>
            <lane id="edge-11-8_1"/>
        </edge>
    </timestep>
    <timestep time="37.00">
        <edge id="edge-11-8">
            <lane id="edge-11-8_0">
                <vehicle id="flow0.3" pos="69.04" speed="13.93"/>
                <vehicle id="flow0.2" pos="203.49" speed="14.33"/>
                <vehicle id="flow0.1" pos="345.21" speed="14.49"/>
                <vehicle id="flow0.0" pos="493.15" speed="14.20"/>
            </lane>
            <lane id="edge-11-8_1"/>
        </edge>
    </timestep>
    <timestep time="38.00">
        <edge id="edge-11-8">
            <lane id="edge-11-8_0">
                <vehicle id="flow0.3" pos="82.77" speed="13.73"/>
                <vehicle id="flow0.2" pos="218.02" speed="14.53"/>
                <vehicle id="flow0.1" pos="359.67" speed="14.46"/>
                <vehicle id="flow0.0" pos="507.39" speed="14.24"/>
            </lane>
            <lane id="edge-11-8_1"/>
        </edge>
    </timestep>
    <timestep time="39.00">
        <edge id="edge-11-8">
            <lane id="edge-11-8_0">
                <vehicle id="flow0.3" pos="96.63" speed="13.86"/>
                <vehicle id="flow0.2" pos="232.88" speed="14.86"/>
                <vehicle id="flow0.1" pos="374.27" speed="14.61"/>
                <vehicle id="flow0.0" pos="522.36" speed="14.97"/>
            </lane>
            <lane id="edge-11-8_1"/>
        </edge>
    </timestep>
    <timestep time="40.00">
        <edge id="edge-11-8">
            <lane id="edge-11-8_0">
                <vehicle id="flow0.4" pos="5.10" speed="0.00"/>
                <vehicle id="flow0.3" pos="111.08" speed="14.45"/>
                <vehicle id="flow0.2" pos="247.24" speed="14.36"/>
                <vehicle id="flow0.1" pos="388.07" speed="13.80"/>
                <vehicle id="flow0.0" pos="536.55" speed="14.19"/>
            </lane>
            <lane id="edge-11-8_1"/>
        </edge>
    </timestep>
    <timestep time="41.00">
        <edge id="edge-11-8">
            <lane id="edge-11-8_0">
                <vehicle id="flow0.4" pos="6.44" speed="1.34"/>
                <vehicle id="flow0.3" pos="125.34" speed="14.25"/>
                <vehicle id="flow0.2" pos="261.10" speed="13.86"/>
                <vehicle id="flow0.1" pos="402.48" speed="14.41"/>
                <vehicle id="flow0.0" pos="550.62" speed="14.08"/>
            </lane>
            <lane id="edge-11-8_1"/>
        </edge>
    </timestep>
    <timestep time="42.00">
        <edge id="edge-11-8">
            <lane id="edge-11-8_0">
                <vehicle id="flow0.4" pos="10.24" speed="3.81"/>
                <vehicle id="flow0.3" pos="139.43" speed="14.09"/>
                <vehicle id="flow0.2" pos="275.66" speed="14.55"/>
                <vehicle id="flow0.1" pos="416.94" speed="14.47"/>
                <vehicle id="flow0.0" pos="565.24" speed="14.61"/>
            </lane>
            <lane id="edge-11-8_1"/>
        </edge>
    </timestep>
    <timestep time="43.00">
        <edge id="edge-11-8">
            <lane id="edge-11-8_0">
                <vehicle id="flow0.4" pos="15.72" speed="5.48"/>
                <vehicle id="flow0.3" pos="154.06" speed="14.63"/>
                <vehicle id="flow0.2" pos="289.64" speed="13.98"/>
                <vehicle id="flow0.1" pos="431.08" speed="14.14"/>
                <vehicle id="flow0.0" pos="579.63" speed="14.39"/>
            </lane>
            <lane id="edge-11-8_1"/>
        </edge>
    </timestep>
    <timestep time="44.00">
        <edge id="edge-11-8">
            <lane id="edge-11-8_0">
                <vehicle id="flow0.4" pos="23.32" speed="7.60"/>
                <vehicle id="flow0.3" pos="167.91" speed="13.85"/>
                <vehicle id="flow0.2" pos="304.46" speed="14.82"/>
                <vehicle id="flow0.1" pos="445.16" speed="14.07"/>
                <vehicle id="flow0.0" pos="594.47" speed="14.84"/>
            </lane>
            <lane id="edge-11-8_1"/>
        </edge>
    </timestep>
    <timestep time="45.00">
        <edge id="edge-11-8">
            <lane id="edge-11-8_0">
                <vehicle id="flow0.4" pos="32.24" speed="8.92"/>
                <vehicle id="flow0.3" pos="182.04" speed="14.12"/>
                <vehicle id="flow0.2" pos="318.95" speed="14.49"/>
                <vehicle id="flow0.1" pos="460.10" speed="14.94"/>
                <vehicle id="flow0.0" pos="608.85" speed="14.38"/>
            </lane>
            <lane id="edge-11-8_1"/>
        </edge>
    </timestep>
    <timestep time="46.00">
        <edge id="edge-11-8">
            <lane id="edge-11-8_0">
                <vehicle id="flow0.4" pos="42.90" speed="10.66"/>
                <vehicle id="flow0.3" pos="196.59" speed="14.55"/>
                <vehicle id="flow0.2" pos="332.78" speed="13.82"/>
                <vehicle id="flow0.1" pos="474.90" speed="14.80"/>
                <vehicle id="flow0.0" pos="622.75" speed="13.90"/>
            </lane>
            <lane id="edge-11-8_1"/>
        </edge>
    </timestep>
    <timestep time="47.00">
        <edge id="edge-11-8">
            <lane id="edge-11-8_0">
                <vehicle id="flow0.4" pos="55.28" speed="12.38"/>
                <vehicle id="flow0.3" pos="211.09" speed="14.51"/>
                <vehicle id="flow0.2" pos="347.42" speed="14.64"/>
                <vehicle id="flow0.1" pos="489.13" speed="14.23"/>
                <vehicle id="flow0.0" pos="637.19" speed="14.44"/>
            </lane>
            <lane id="edge-11-8_1"/>
        </edge>
    </timestep>
    <timestep time="48.00">
        <edge id="edge-11-8">
            <lane id="edge-11-8_0">
                <vehicle id="flow0.4" pos="69.42" speed="14.14"/>
                <vehicle id="flow0.3" pos="224.98" speed="13.89"/>
                <vehicle id="flow0.2" pos="362.28" speed="14.87"/>
                <vehicle id="flow0.1" pos="503.39" speed="14.25"/>
                <vehicle id="flow0.0" pos="651.42" speed="14.23"/>
            </lane>
            <lane id="edge-11-8_1"/>
        </edge>
    </timestep>
    <timestep time="49.00">
        <edge id="edge-11-8">
            <lane id="edge-11-8_0">
                <vehicle id="flow0.4" pos="83.15" speed="13.72"/>
                <vehicle id="flow0.3" pos="239.96" speed="14.98"/>
                <vehicle id="flow0.2" pos="376.57" speed="14.29"/>
                <vehicle id="flow0.1" pos="517.16" speed="13.77"/>
                <vehicle id="flow0.0" pos="665.35" speed="13.93"/>
            </lane>
            <lane id="edge-11-8_1"/>
        </edge>
    </timestep>
    <timestep time="50.00">
        <edge id="edge-11-8">
            <lane id="edge-11-8_0">
                <vehicle id="flow0.5" pos="5.10" speed="0.00"/>
                <vehicle id="flow0.4" pos="97.70" speed="14.55"/>
                <vehicle id="flow0.3" pos="254.74" speed="14.78"/>
                <vehicle id="flow0.2" pos="390.39" speed="13.83"/>
                <vehicle id="flow0.1" pos="531.53" speed="14.37"/>
                <vehicle id="flow0.0" pos="679.19" speed="13.85"/>
            </lane>
            <lane id="edge-11-8_1"/>
        </edge>
    </timestep>
    <timestep time="51.00">
        <edge id="edge-11-8">
            <lane id="edge-11-8_0">
                <vehicle id="flow0.5" pos="6.51" speed="1.41"/>
                <vehicle id="flow0.4" pos="111.84" speed="14.14"/>
                <vehicle id="flow0.3" pos="269.74" speed="15.00"/>
                <vehicle id="flow0.2" pos="404.95" speed="14.56"/>
                <vehicle id="flow0.1" pos="545.92" speed="14.39"/>
                <vehicle id="flow0.0" pos="693.16" speed="13.96"/>
            </lane>
            <lane id="edge-11-8_1"/>
        </edge>
    </timestep>
    <timestep time="52.00">
        <edge id="edge-11-8">
            <lane id="edge-11-8_0">
                <vehicle id="flow0.5" pos="9.40" speed="2.90"/>
                <vehicle id="flow0.4" pos="126.69" speed="14.85"/>
                <vehicle id="flow0.3" pos="284.21" speed="14.46"/>
                <vehicle id="flow0.2" pos="418.77" speed="13.82"/>
                <vehicle id="flow0.1" pos="560.29" speed="14.37"/>
                <vehicle id="flow0.0" pos="708.14" speed="14.98"/>
            </lane>
            <lane id="edge-11-8_1"/>
        </edge>
    </timestep>
    <timestep time="53.00">
        <edge id="edge-11-8">
            <lane id="edge-11-8_0">
                <vehicle id="flow0.5" pos="13.88" speed="4.48"/>
                <vehicle id="flow0.4" pos="140.48" speed="13.78"/>
                <vehicle id="flow0.3" pos="298.57" speed="14.37"/>
                <vehicle id="flow0.2" pos="432.48" speed="13.70"/>
                <vehicle id="flow0.1" pos="574.78" speed="14.49"/>
                <vehicle id="flow0.0" pos="722.08" speed="13.93"/>
            </lane>
            <lane id="edge-11-8_1"/>
        </edge>
    </timestep>
    <timestep time="54.00">
        <edge id="edge-11-8">
            <lane id="edge-11-8_0">
                <vehicle id="flow0.5" pos="20.38" speed="6.50"/>
                <vehicle id="flow0.4" pos="155.28" speed="14.80"/>
                <vehicle id="flow0.3" pos="313.30" speed="14.73"/>
                <vehicle id="flow0.2" pos="447.04" speed="14.57"/>
                <vehicle id="flow0.1" pos="588.68" speed="13.90"/>
                <vehicle id="flow0.0" pos="736.48" speed="14.40"/>
            </lane>
            <lane id="edge-11-8_1"/>
        </edge>
    </timestep>
    <timestep time="55.00">
        <edge id="edge-11-8">
            <lane id="edge-11-8_0">
                <vehicle id="flow0.5" pos="29.28" speed="8.89"/>
                <vehicle id="flow0.4" pos="169.24" speed="13.96"/>
                <vehicle id="flow0.3" pos="327.83" speed="14.52"/>
                <vehicle id="flow0.2" pos="461.47" speed="14.42"/>
                <vehicle id="flow0.1" pos="602.74" speed="14.06"/>
                <vehicle id="flow0.0" pos="751.05" speed="14.58"/>
            </lane>
            <lane id="edge-11-8_1"/>
        </edge>
    </timestep>
    <timestep time="56.00">
        <edge id="edge-11-8">
            <lane id="edge-11-8_0">
                <vehicle id="flow0.5" pos="40.48" speed="11.20"/>
                <vehicle id="flow0.4" pos="184.11" speed="14.87"/>
                <vehicle id="flow0.3" pos="342.68" speed="14.85"/>
                <vehicle id="flow0.2" pos="475.44" speed="13.97"/>
                <vehicle id="flow0.1" pos="617.57" speed="14.83"/>
                <vehicle id="flow0.0" pos="765.30" speed="14.25"/>
            </lane>
            <lane id="edge-11-8_1"/>
        </edge>
    </timestep>
    <timestep time="57.00">
        <edge id="edge-11-8">
            <lane id="edge-11-8_0">
                <vehicle id="flow0.5" pos="53.17" speed="12.69"/>
                <vehicle id="flow0.4" pos="198.78" speed="14.67"/>
                <vehicle id="flow0.3" pos="357.26" speed="14.58"/>
                <vehicle id="flow0.2" pos="489.24" speed="13.80"/>
                <vehicle id="flow0.1" pos="632.32" speed="14.75"/>
                <vehicle id="flow0.0" pos="780.01" speed="14.70"/>
            </lane>
            <lane id="edge-11-8_1"/>
        </edge>
    </timestep>
    <timestep time="58.00">
        <edge id="edge-11-8">
            <lane id="edge-11-8_0">
                <vehicle id="flow0.5" pos="66.98" speed="13.81"/>
                <vehicle id="flow0.4" pos="213.50" speed="14.71"/>
                <vehicle id="flow0.3" pos="371.04" speed="13.78"/>
                <vehicle id="flow0.2" pos="503.93" speed="14.69"/>
                <vehicle id="flow0.1" pos="647.07" speed="14.75"/>
                <vehicle id="flow0.0" pos="794.40" speed="14.39"/>
            </lane>
            <lane id="edge-11-8_1"/>
        </edge>
    </timestep>
    <timestep time="59.00">
        <edge id="edge-11-8">
            <lane id="edge-11-8_0">
                <vehicle id="flow0.5" pos="81.94" speed="14.95"/>
                <vehicle id="flow0.4" pos="227.76" speed="14.26"/>
                <vehicle id="flow0.3" pos="385.93" speed="14.89"/>
                <vehicle id="flow0.2" pos="518.41" speed="14.48"/>
                <vehicle id="flow0.1" pos="661.04" speed="13.97"/>
                <vehicle id="flow0.0" pos="808.66" speed="14.26"/>
            </lane>
            <lane id="edge-11-8_1"/>
        </edge>
    </timestep>
    <timestep time="60.00">
        <edge id="edge-11-8">
            <lane id="edge-11-8_0">
                <vehicle id="flow0.6" pos="5.10" speed="0.00"/>
                <vehicle id="flow0.5" pos="96.93" speed="14.99"/>
                <vehicle id="flow0.4" pos="242.16" speed="14.41"/>
                <vehicle id="flow0.3" pos="400.77" speed="14.84"/>
                <vehicle id="flow0.2" pos="532.54" speed="14.13"/>
                <vehicle id="flow0.1" pos="675.08" speed="14.04"/>
                <vehicle id="flow0.0" pos="822.69" speed="14.03"/>
            </lane>
            <lane id="edge-11-8_1"/>
        </edge>
    </timestep>
    <timestep time="61.00">
        <edge id="edge-11-8">
            <lane id="edge-11-8_0">
                <vehicle id="flow0.6" pos="7.45" speed="2.35"/>
                <vehicle id="flow0.5" pos="111.14" speed="14.21"/>
                <vehicle id="flow0.4" pos="256.20" speed="14.04"/>
                <vehicle id="flow0.3" pos="414.74" speed="13.97"/>
                <vehicle id="flow0.2" pos="546.98" speed="14.44"/>
                <vehicle id="flow0.1" pos="689.97" speed="14.89"/>
                <vehicle id="flow0.0" pos="836.92" speed="14.24"/>
            </lane>
            <lane id="edge-11-8_1"/>
        </edge>
    </timestep>
    <timestep time="62.00">
        <edge id="edge-11-8">
            <lane id="edge-11-8_0">
                <vehicle id="flow0.6" pos="12.11" speed="4.65"/>
                <vehicle id="flow0.5" pos="125.39" speed="14.25"/>
                <vehicle id="flow0.4" pos="271.19" speed="14.98"/>
                <vehicle id="flow0.3" pos="429.06" speed="14.31"/>
                <vehicle id="flow0.2" pos="561.84" speed="14.86"/>
                <vehicle id="flow0.1" pos="704.45" speed="14.49"/>
                <vehicle id="flow0.0" pos="850.64" speed="13.72"/>
            </lane>
            <lane id="edge-11-8_1"/>
        </edge>
    </timestep>
    <timestep time="63.00">
        <edge id="edge-11-8">
            <lane id="edge-11-8_0">
                <vehicle id="flow0.6" pos="19.11" speed="7.01"/>
                <vehicle id="flow0.5" pos="140.09" speed="14.70"/>
                <vehicle id="flow0.4" pos="285.00" speed="13.81"/>
                <vehicle id="flow0.3" pos="443.77" speed="14.71"/>
                <vehicle id="flow0.2" pos="575.67" speed="13.82"/>
                <vehicle id="flow0.1" pos="718.23" speed="13.78"/>
                <vehicle id="flow0.0" pos="864.93" speed="14.29"/>
            </lane>
            <lane id="edge-11-8_1"/>
        </edge>
    </timestep>
    <timestep time="64.00">
        <edge id="edge-11-8">
            <lane id="edge-11-8_0">
                <vehicle id="flow0.6" pos="28.32" speed="9.21"/>
                <vehicle id="flow0.5" pos="154.01" speed="13.92"/>
                <vehicle id="flow0.4" pos="299.01" speed="14.01"/>
                <vehicle id="flow0.3" pos="458.37" speed="14.61"/>
                <vehicle id="flow0.2" pos="590.08" speed="14.42"/>
                <vehicle id="flow0.1" pos="732.89" speed="14.66"/>
                <vehicle id="flow0.0" pos="879.48" speed="14.55"/>
            </lane>
            <lane id="edge-11-8_1"/>
        </edge>
    </timestep>
    <timestep time="65.00">
        <edge id="edge-11-8">
            <lane id="edge-11-8_0">
                <vehicle id="flow0.6" pos="40.08" speed="11.76"/>
                <vehicle id="flow0.5" pos="168.95" speed="14.94"/>
                <vehicle id="flow0.4" pos="313.26" speed="14.25"/>
                <vehicle id="flow0.3" pos="473.10" speed="14.72"/>