<?xml version="1.0" encoding="UTF-8"?>

<!-- generated on Tue 14 Mar 2017 12:03:57 PM CST by SUMO gui Version 0.19.0
<?xml version="1.0" encoding="UTF-8"?>

<configuration xmlns:xsi="http://www.w3.org/2001/XMLSchema-instance" xsi:noNamespaceSchemaLocation="http://sumo-sim.org/xsd/sumo-gui.exeConfiguration.xsd">

    <input>
        <net-file value="/home/zenghaien/SUMO/route4/MySUMONet.net.xml"/>
        <route-files value="/home/zenghaien/SUMO/route4/ex_ROU.rou.xml"/>
    </input>

    <output>
        <netstate-dump value="/home/zenghaien/SUMO/route4/ex_sumo.sumo.tr"/>
        <emission-output value="/home/zenghaien/SUMO/route4/output-emissions.xml"/>
        <tripinfo-output value="/home/zenghaien/SUMO/route4/output-tripinfos.xml"/>
        <vehroute-output value="/home/zenghaien/SUMO/route4/output-vehroutes.xml"/>
        <save-state.prefix value="/home/zenghaien/SUMO/route4/state"/>
    </output>

    <time>
        <begin value="0"/>
        <end value="2000"/>
    </time>

    <processing>
        <route-steps value="-1"/>
        <time-to-teleport value="-1"/>
    </processing>

    <report>
        <print-options value="false"/>
    </report>

    <random_number>
        <seed value="23423"/>
    </random_number>

</configuration>
-->

<emission-export>
    <timestep time="0.00">
        <vehicle id="flow0.0" eclass="-1" CO2="601.69" CO="6.37" HC="0.35" NOx="0.84" PMx="0.02" fuel="0.24" noise="55.94" route="!flow0.0" type="DEFAULT_VEHTYPE" waiting="0.00" lane="edge-11-8_0" pos="5.10" speed="0.00" angle="0.00" x="995.05" y="2994.90"/>
    </timestep>
    <timestep time="1.00">
        <vehicle id="flow0.0" eclass="-1" CO2="1131.40" CO="12.37" HC="0.48" NOx="1.96" PMx="0.08" fuel="0.45" noise="62.83" route="!flow0.0" type="DEFAULT_VEHTYPE" waiting="0.00" lane="edge-11-8_0" pos="6.54" speed="1.44" angle="0.00" x="995.05" y="2993.46"/>
    </timestep>
    <timestep time="2.00">
        <vehicle id="flow0.0" eclass="-1" CO2="1904.98" CO="23.39" HC="0.70" NOx="3.68" PMx="0.19" fuel="0.76" noise="64.53" route="!flow0.0" type="DEFAULT_VEHTYPE" waiting="0.00" lane="edge-11-8_0" pos="9.66" speed="3.12" angle="0.00" x="995.05" y="2990.34"/>
    </timestep>
    <timestep time="3.00">
        <vehicle id="flow0.0" eclass="-1" CO2="4340.34" CO="72.41" HC="1.56" NOx="9.62" PMx="0.62" fuel="1.73" noise="69.40" route="!flow0.0" type="DEFAULT_VEHTYPE" waiting="0.00" lane="edge-11-8_0" pos="15.31" speed="5.66" angle="0.00" x="995.05" y="2984.69"/>
    </timestep>
    <timestep time="4.00">
        <vehicle id="flow0.0" eclass="-1" CO2="4303.67" CO="62.74" HC="1.44" NOx="9.20" PMx="0.53" fuel="1.72" noise="67.79" route="!flow0.0" type="DEFAULT_VEHTYPE" waiting="0.00" lane="edge-11-8_0" pos="22.93" speed="7.62" angle="0.00" x="995.05" y="2977.07"/>
    </timestep>
    <timestep time="5.00">
        <vehicle id="flow0.0" eclass="-1" CO2="4862.82" CO="69.42" HC="1.59" NOx="10.39" PMx="0.59" fuel="1.94" noise="68.15" route="!flow0.0" type="DEFAULT_VEHTYPE" waiting="0.00" lane="edge-11-8_0" pos="32.38" speed="9.45" angle="0.00" x="995.05" y="2967.62"/>
    </timestep>
    <timestep time="6.00">
        <vehicle id="flow0.0" eclass="-1" CO2="8508.91" CO="151.67" HC="2.97" NOx="19.58" PMx="1.29" fuel="3.39" noise="72.34" route="!flow0.0" type="DEFAULT_VEHTYPE" waiting="0.00" lane="edge-11-8_0" pos="44.38" speed="11.99" angle="0.00" x="995.05" y="2955.62"/>
    </timestep>
    <timestep time="7.00">
        <vehicle id="flow0.0" eclass="-1" CO2="6089.72" CO="86.25" HC="1.91" NOx="13.06" PMx="0.72" fuel="2.43" noise="69.52" route="!flow0.0" type="DEFAULT_VEHTYPE" waiting="0.00" lane="edge-11-8_0" pos="58.00" speed="13.63" angle="0.00" x="995.05" y="2942.00"/>
    </timestep>
    <timestep time="8.00">
        <vehicle id="flow0.0" eclass="-1" CO2="4645.01" CO="49.95" HC="1.29" NOx="9.35" PMx="0.43" fuel="1.85" noise="68.03" route="!flow0.0" type="DEFAULT_VEHTYPE" waiting="0.00" lane="edge-11-8_0" pos="72.68" speed="14.68" angle="0.00" x="995.05" y="2927.32"/>
    </timestep>
    <timestep time="9.00">
        <vehicle id="flow0.0" eclass="-1" CO2="0.00" CO="0.00" HC="0.00" NOx="0.00" PMx="0.00" fuel="0.00" noise="64.05" route="!flow0.0" type="DEFAULT_VEHTYPE" waiting="0.00" lane="edge-11-8_0" pos="86.97" speed="14.29" angle="0.00" x="995.05" y="2913.03"/>
    </timestep>
    <timestep time="10.00">
        <vehicle id="flow0.0" eclass="-1" CO2="0.00" CO="0.00" HC="0.00" NOx="0.00" PMx="0.00" fuel="0.00" noise="64.11" route="!flow0.0" type="DEFAULT_VEHTYPE" waiting="0.00" lane="edge-11-8_0" pos="101.00" speed="14.03" angle="0.00" x="995.05" y="2899.00"/>
        <vehicle id="flow0.1" eclass="-1" CO2="601.69" CO="6.37" HC="0.35" NOx="0.84" PMx="0.02" fuel="0.24" noise="55.94" route="!flow0.1" type="DEFAULT_VEHTYPE" waiting="0.00" lane="edge-11-8_0" pos="5.10" speed="0.00" angle="0.00" x="995.05" y="2994.90"/>
    </timestep>
    <timestep time="11.00">
        <vehicle id="flow0.0" eclass="-1" CO2="4478.53" CO="45.64" HC="1.21" NOx="8.93" PMx="0.40" fuel="1.79" noise="67.92" route="!flow0.0" type="DEFAULT_VEHTYPE" waiting="0.00" lane="edge-11-8_0" pos="116.00" speed="14.99" angle="0.00" x="995.05" y="2884.00"/>
        <vehicle id="flow0.1" eclass="-1" CO2="1351.76" CO="16.37" HC="0.55" NOx="2.48" PMx="0.12" fuel="0.54" noise="64.19" route="!flow0.1" type="DEFAULT_VEHTYPE" waiting="0.00" lane="edge-11-8_0" pos="6.83" speed="1.73" angle="0.00" x="995.05" y="2993.17"/>
    </timestep>
    <timestep time="12.00">
        <vehicle id="flow0.0" eclass="-1" CO2="0.00" CO="0.00" HC="0.00" NOx="0.00" PMx="0.00" fuel="0.00" noise="63.77" route="!flow0.0" type="DEFAULT_VEHTYPE" waiting="0.00" lane="edge-11-8_0" pos="130.39" speed="14.39" angle="0.00" x="995.05" y="2869.61"/>
        <vehicle id="flow0.1" eclass="-1" CO2="2491.93" CO="34.94" HC="0.91" NOx="5.10" PMx="0.29" fuel="0.99" noise="66.27" route="!flow0.1" type="DEFAULT_VEHTYPE" waiting="0.00" lane="edge-11-8_0" pos="10.56" speed="3.74" angle="0.00" x="995.05" y="2989.44"/>
    </timestep>
    <timestep time="13.00">
        <vehicle id="flow0.0" eclass="-1" CO2="0.00" CO="0.00" HC="0.00" NOx="0.00" PMx="0.00" fuel="0.00" noise="64.54" route="!flow0.0" type="DEFAULT_VEHTYPE" waiting="0.00" lane="edge-11-8_0" pos="144.65" speed="14.26" angle="0.00" x="995.05" y="2855.35"/>
        <vehicle id="flow0.1" eclass="-1" CO2="4029.52" CO="62.93" HC="1.42" NOx="8.74" PMx="0.53" fuel="1.61" noise="68.31" route="!flow0.1" type="DEFAULT_VEHTYPE" waiting="0.00" lane="edge-11-8_0" pos="16.56" speed="5.99" angle="0.00" x="995.05" y="2983.44"/>
    </timestep>
    <timestep time="14.00">
        <vehicle id="flow0.0" eclass="-1" CO2="3653.53" CO="27.61" HC="0.89" NOx="6.96" PMx="0.28" fuel="1.46" noise="66.96" route="!flow0.0" type="DEFAULT_VEHTYPE" waiting="0.00" lane="edge-11-8_0" pos="159.58" speed="14.92" angle="0.00" x="995.05" y="2840.42"/>
        <vehicle id="flow0.1" eclass="-1" CO2="3289.95" CO="38.71" HC="1.04" NOx="6.62" PMx="0.34" fuel="1.31" noise="65.62" route="!flow0.1" type="DEFAULT_VEHTYPE" waiting="0.00" lane="edge-11-8_0" pos="24.01" speed="7.46" angle="0.00" x="995.05" y="2975.99"/>
    </timestep>
    <timestep time="15.00">
        <vehicle id="flow0.0" eclass="-1" CO2="0.00" CO="0.00" HC="0.00" NOx="0.00" PMx="0.00" fuel="0.00" noise="64.35" route="!flow0.0" type="DEFAULT_VEHTYPE" waiting="0.00" lane="edge-11-8_0" pos="174.16" speed="14.58" angle="0.00" x="995.05" y="2825.84"/>
        <vehicle id="flow0.1" eclass="-1" CO2="4449.19" CO="60.35" HC="1.43" NOx="9.37" PMx="0.52" fuel="1.77" noise="67.51" route="!flow0.1" type="DEFAULT_VEHTYPE" waiting="0.00" lane="edge-11-8_0" pos="33.18" speed="9.17" angle="0.00" x="995.05" y="2966.82"/>
    </timestep>
    <timestep time="16.00">
        <vehicle id="flow0.0" eclass="-1" CO2="2967.20" CO="13.34" HC="0.62" NOx="5.38" PMx="0.20" fuel="1.18" noise="66.15" route="!flow0.0" type="DEFAULT_VEHTYPE" waiting="0.00" lane="edge-11-8_0" pos="189.10" speed="14.94" angle="0.00" x="995.05" y="2810.90"/>
        <vehicle id="flow0.1" eclass="-1" CO2="5903.74" CO="89.24" HC="1.94" NOx="12.87" PMx="0.76" fuel="2.35" noise="69.38" route="!flow0.1" type="DEFAULT_VEHTYPE" waiting="0.00" lane="edge-11-8_0" pos="44.28" speed="11.10" angle="0.00" x="995.05" y="2955.72"/>
    </timestep>
    <timestep time="17.00">
        <vehicle id="flow0.0" eclass="-1" CO2="0.00" CO="0.00" HC="0.00" NOx="0.00" PMx="0.00" fuel="0.00" noise="64.37" route="!flow0.0" type="DEFAULT_VEHTYPE" waiting="0.00" lane="edge-11-8_0" pos="203.70" speed="14.60" angle="0.00" x="995.05" y="2796.30"/>
        <vehicle id="flow0.1" eclass="-1" CO2="6236.96" CO="91.87" HC="2.00" NOx="13.51" PMx="0.77" fuel="2.49" noise="69.67" route="!flow0.1" type="DEFAULT_VEHTYPE" waiting="0.00" lane="edge-11-8_0" pos="57.15" speed="12.88" angle="0.00" x="995.05" y="2942.85"/>
    </timestep>
    <timestep time="18.00">
        <vehicle id="flow0.0" eclass="-1" CO2="0.00" CO="0.00" HC="0.00" NOx="0.00" PMx="0.00" fuel="0.00" noise="62.95" route="!flow0.0" type="DEFAULT_VEHTYPE" waiting="0.00" lane="edge-11-8_0" pos="217.48" speed="13.78" angle="0.00" x="995.05" y="2782.52"/>
        <vehicle id="flow0.1" eclass="-1" CO2="4427.09" CO="46.41" HC="1.23" NOx="8.86" PMx="0.41" fuel="1.77" noise="67.60" route="!flow0.1" type="DEFAULT_VEHTYPE" waiting="0.00" lane="edge-11-8_0" pos="71.08" speed="13.93" angle="0.00" x="995.05" y="2928.92"/>
    </timestep>
    <timestep time="19.00">
        <vehicle id="flow0.0" eclass="-1" CO2="2239.84" CO="0.63" HC="0.37" NOx="3.80" PMx="0.14" fuel="0.89" noise="64.69" route="!flow0.0" type="DEFAULT_VEHTYPE" waiting="0.00" lane="edge-11-8_0" pos="231.32" speed="13.85" angle="0.00" x="995.05" y="2768.68"/>
        <vehicle id="flow0.1" eclass="-1" CO2="3314.73" CO="21.03" HC="0.77" NOx="6.18" PMx="0.24" fuel="1.32" noise="66.40" route="!flow0.1" type="DEFAULT_VEHTYPE" waiting="0.00" lane="edge-11-8_0" pos="85.57" speed="14.48" angle="0.00" x="995.05" y="2914.43"/>
    </timestep>
    <timestep time="20.00">
        <vehicle id="flow0.0" eclass="-1" CO2="3033.23" CO="15.46" HC="0.67" NOx="5.54" PMx="0.21" fuel="1.21" noise="65.97" route="!flow0.0" type="DEFAULT_VEHTYPE" waiting="0.00" lane="edge-11-8_0" pos="245.62" speed="14.29" angle="0.00" x="995.05" y="2754.38"/>
        <vehicle id="flow0.1" eclass="-1" CO2="2618.74" CO="6.79" HC="0.49" NOx="4.61" PMx="0.17" fuel="1.04" noise="65.61" route="!flow0.1" type="DEFAULT_VEHTYPE" waiting="0.00" lane="edge-11-8_0" pos="100.26" speed="14.69" angle="0.00" x="995.05" y="2899.74"/>
        <vehicle id="flow0.2" eclass="-1" CO2="601.69" CO="6.37" HC="0.35" NOx="0.84" PMx="0.02" fuel="0.24" noise="55.94" route="!flow0.2" type="DEFAULT_VEHTYPE" waiting="0.00" lane="edge-11-8_0" pos="5.10" speed="0.00" angle="0.00" x="995.05" y="2994.90"/>
    </timestep>
    <timestep time="21.00">
        <vehicle id="flow0.0" eclass="-1" CO2="3680.88" CO="28.14" HC="0.90" NOx="7.02" PMx="0.29" fuel="1.47" noise="67.00" route="!flow0.0" type="DEFAULT_VEHTYPE" waiting="0.00" lane="edge-11-8_0" pos="260.57" speed="14.96" angle="0.00" x="995.05" y="2739.43"/>
        <vehicle id="flow0.1" eclass="-1" CO2="0.00" CO="0.00" HC="0.00" NOx="0.00" PMx="0.00" fuel="0.00" noise="64.88" route="!flow0.1" type="DEFAULT_VEHTYPE" waiting="0.00" lane="edge-11-8_0" pos="114.87" speed="14.61" angle="0.00" x="995.05" y="2885.13"/>
        <vehicle id="flow0.2" eclass="-1" CO2="1253.31" CO="14.54" HC="0.52" NOx="2.25" PMx="0.10" fuel="0.50" noise="63.62" route="!flow0.2" type="DEFAULT_VEHTYPE" waiting="0.00" lane="edge-11-8_0" pos="6.71" speed="1.61" angle="0.00" x="995.05" y="2993.29"/>
    </timestep>
    <timestep time="22.00">
        <vehicle id="flow0.0" eclass="-1" CO2="0.00" CO="0.00" HC="0.00" NOx="0.00" PMx="0.00" fuel="0.00" noise="64.85" route="!flow0.0" type="DEFAULT_VEHTYPE" waiting="0.00" lane="edge-11-8_0" pos="275.37" speed="14.79" angle="0.00" x="995.05" y="2724.63"/>
        <vehicle id="flow0.1" eclass="-1" CO2="0.00" CO="0.00" HC="0.00" NOx="0.00" PMx="0.00" fuel="0.00" noise="62.89" route="!flow0.1" type="DEFAULT_VEHTYPE" waiting="0.00" lane="edge-11-8_0" pos="128.62" speed="13.76" angle="0.00" x="995.05" y="2871.38"/>
        <vehicle id="flow0.2" eclass="-1" CO2="3394.56" CO="55.62" HC="1.26" NOx="7.40" PMx="0.47" fuel="1.35" noise="68.85" route="!flow0.2" type="DEFAULT_VEHTYPE" waiting="0.00" lane="edge-11-8_0" pos="10.87" speed="4.17" angle="0.00" x="995.05" y="2989.13"/>
    </timestep>
    <timestep time="23.00">
        <vehicle id="flow0.0" eclass="-1" CO2="0.00" CO="0.00" HC="0.00" NOx="0.00" PMx="0.00" fuel="0.00" noise="63.42" route="!flow0.0" type="DEFAULT_VEHTYPE" waiting="0.00" lane="edge-11-8_0" pos="289.48" speed="14.11" angle="0.00" x="995.05" y="2710.52"/>
        <vehicle id="flow0.1" eclass="-1" CO2="3961.96" CO="34.83" HC="1.02" NOx="7.70" PMx="0.33" fuel="1.58" noise="67.21" route="!flow0.1" type="DEFAULT_VEHTYPE" waiting="0.00" lane="edge-11-8_0" pos="143.19" speed="14.57" angle="0.00" x="995.05" y="2856.81"/>
        <vehicle id="flow0.2" eclass="-1" CO2="4725.76" CO="77.76" HC="1.67" NOx="10.47" PMx="0.66" fuel="1.88" noise="69.34" route="!flow0.2" type="DEFAULT_VEHTYPE" waiting="0.00" lane="edge-11-8_0" pos="17.47" speed="6.60" angle="0.00" x="995.05" y="2982.53"/>
    </timestep>
    <timestep time="24.00">
        <vehicle id="flow0.0" eclass="-1" CO2="3808.87" CO="31.07" HC="0.95" NOx="7.33" PMx="0.31" fuel="1.52" noise="67.11" route="!flow0.0" type="DEFAULT_VEHTYPE" waiting="0.00" lane="edge-11-8_0" pos="304.31" speed="14.84" angle="0.00" x="995.05" y="2695.69"/>
        <vehicle id="flow0.1" eclass="-1" CO2="0.00" CO="0.00" HC="0.00" NOx="0.00" PMx="0.00" fuel="0.00" noise="64.74" route="!flow0.1" type="DEFAULT_VEHTYPE" waiting="0.00" lane="edge-11-8_0" pos="157.66" speed="14.47" angle="0.00" x="995.05" y="2842.34"/>
        <vehicle id="flow0.2" eclass="-1" CO2="3256.14" CO="36.13" HC="1.00" NOx="6.48" PMx="0.32" fuel="1.30" noise="65.39" route="!flow0.2" type="DEFAULT_VEHTYPE" waiting="0.00" lane="edge-11-8_0" pos="25.42" speed="7.95" angle="0.00" x="995.05" y="2974.58"/>
    </timestep>
    <timestep time="25.00">
        <vehicle id="flow0.0" eclass="-1" CO2="0.00" CO="0.00" HC="0.00" NOx="0.00" PMx="0.00" fuel="0.00" noise="64.72" route="!flow0.0" type="DEFAULT_VEHTYPE" waiting="0.00" lane="edge-11-8_0" pos="318.97" speed="14.66" angle="0.00" x="995.05" y="2681.03"/>
        <vehicle id="flow0.1" eclass="-1" CO2="2693.45" CO="8.20" HC="0.52" NOx="4.78" PMx="0.18" fuel="1.07" noise="65.71" route="!flow0.1" type="DEFAULT_VEHTYPE" waiting="0.00" lane="edge-11-8_0" pos="172.37" speed="14.71" angle="0.00" x="995.05" y="2827.63"/>
        <vehicle id="flow0.2" eclass="-1" CO2="6874.06" CO="116.37" HC="2.37" NOx="15.52" PMx="0.99" fuel="2.74" noise="70.86" route="!flow0.2" type="DEFAULT_VEHTYPE" waiting="0.00" lane="edge-11-8_0" pos="35.74" speed="10.33" angle="0.00" x="995.05" y="2964.26"/>
    </timestep>
    <timestep time="26.00">
        <vehicle id="flow0.0" eclass="-1" CO2="0.00" CO="0.00" HC="0.00" NOx="0.00" PMx="0.00" fuel="0.00" noise="64.01" route="!flow0.0" type="DEFAULT_VEHTYPE" waiting="0.00" lane="edge-11-8_0" pos="333.23" speed="14.26" angle="0.00" x="995.05" y="2666.77"/>
        <vehicle id="flow0.1" eclass="-1" CO2="0.00" CO="0.00" HC="0.00" NOx="0.00" PMx="0.00" fuel="0.00" noise="65.07" route="!flow0.1" type="DEFAULT_VEHTYPE" waiting="0.00" lane="edge-11-8_0" pos="187.05" speed="14.69" angle="0.00" x="995.05" y="2812.95"/>
        <vehicle id="flow0.2" eclass="-1" CO2="5107.85" CO="67.41" HC="1.58" NOx="10.74" PMx="0.57" fuel="2.04" noise="68.25" route="!flow0.2" type="DEFAULT_VEHTYPE" waiting="0.00" lane="edge-11-8_0" pos="47.62" speed="11.87" angle="0.00" x="995.05" y="2952.38"/>
    </timestep>
    <timestep time="27.00">
        <vehicle id="flow0.0" eclass="-1" CO2="3570.16" CO="25.88" HC="0.86" NOx="6.76" PMx="0.27" fuel="1.42" noise="66.85" route="!flow0.0" type="DEFAULT_VEHTYPE" waiting="0.00" lane="edge-11-8_0" pos="348.11" speed="14.88" angle="0.00" x="995.05" y="2651.89"/>
        <vehicle id="flow0.1" eclass="-1" CO2="0.00" CO="0.00" HC="0.00" NOx="0.00" PMx="0.00" fuel="0.00" noise="63.64" route="!flow0.1" type="DEFAULT_VEHTYPE" waiting="0.00" lane="edge-11-8_0" pos="201.18" speed="14.13" angle="0.00" x="995.05" y="2798.82"/>
        <vehicle id="flow0.2" eclass="-1" CO2="6173.70" CO="88.50" HC="1.95" NOx="13.28" PMx="0.74" fuel="2.46" noise="69.61" route="!flow0.2" type="DEFAULT_VEHTYPE" waiting="0.00" lane="edge-11-8_0" pos="61.16" speed="13.54" angle="0.00" x="995.05" y="2938.84"/>
    </timestep>
    <timestep time="28.00">
        <vehicle id="flow0.0" eclass="-1" CO2="0.00" CO="0.00" HC="0.00" NOx="0.00" PMx="0.00" fuel="0.00" noise="63.54" route="!flow0.0" type="DEFAULT_VEHTYPE" waiting="0.00" lane="edge-11-8_0" pos="362.34" speed="14.22" angle="0.00" x="995.05" y="2637.66"/>
        <vehicle id="flow0.1" eclass="-1" CO2="0.00" CO="0.00" HC="0.00" NOx="0.00" PMx="0.00" fuel="0.00" noise="64.65" route="!flow0.1" type="DEFAULT_VEHTYPE" waiting="0.00" lane="edge-11-8_0" pos="215.29" speed="14.10" angle="0.00" x="995.05" y="2784.71"/>
        <vehicle id="flow0.2" eclass="-1" CO2="2539.71" CO="6.31" HC="0.49" NOx="4.45" PMx="0.16" fuel="1.01" noise="65.09" route="!flow0.2" type="DEFAULT_VEHTYPE" waiting="0.00" lane="edge-11-8_0" pos="74.94" speed="13.78" angle="0.00" x="995.05" y="2925.06"/>
    </timestep>
    <timestep time="29.00">
        <vehicle id="flow0.0" eclass="-1" CO2="0.00" CO="0.00" HC="0.00" NOx="0.00" PMx="0.00" fuel="0.00" noise="63.49" route="!flow0.0" type="DEFAULT_VEHTYPE" waiting="0.00" lane="edge-11-8_0" pos="376.09" speed="13.75" angle="0.00" x="995.05" y="2623.91"/>
        <vehicle id="flow0.1" eclass="-1" CO2="3209.09" CO="18.67" HC="0.72" NOx="5.94" PMx="0.23" fuel="1.28" noise="66.31" route="!flow0.1" type="DEFAULT_VEHTYPE" waiting="0.00" lane="edge-11-8_0" pos="229.89" speed="14.60" angle="0.00" x="995.05" y="2770.11"/>
        <vehicle id="flow0.2" eclass="-1" CO2="3332.35" CO="21.58" HC="0.78" NOx="6.23" PMx="0.25" fuel="1.33" noise="66.37" route="!flow0.2" type="DEFAULT_VEHTYPE" waiting="0.00" lane="edge-11-8_0" pos="89.30" speed="14.36" angle="0.00" x="995.05" y="2910.70"/>
    </timestep>
    <timestep time="30.00">
        <vehicle id="flow0.0" eclass="-1" CO2="3126.87" CO="17.45" HC="0.70" NOx="5.76" PMx="0.22" fuel="1.25" noise="66.07" route="!flow0.0" type="DEFAULT_VEHTYPE" waiting="0.00" lane="edge-11-8_0" pos="390.33" speed="14.25" angle="0.00" x="995.05" y="2609.67"/>
        <vehicle id="flow0.1" eclass="-1" CO2="2581.93" CO="6.00" HC="0.48" NOx="4.53" PMx="0.17" fuel="1.03" noise="65.60" route="!flow0.1" type="DEFAULT_VEHTYPE" waiting="0.00" lane="edge-11-8_0" pos="244.67" speed="14.78" angle="0.00" x="995.05" y="2755.33"/>
        <vehicle id="flow0.2" eclass="-1" CO2="0.00" CO="0.00" HC="0.00" NOx="0.00" PMx="0.00" fuel="0.00" noise="63.27" route="!flow0.2" type="DEFAULT_VEHTYPE" waiting="0.00" lane="edge-11-8_0" pos="103.06" speed="13.76" angle="0.00" x="995.05" y="2896.94"/>
        <vehicle id="flow0.3" eclass="-1" CO2="601.69" CO="6.37" HC="0.35" NOx="0.84" PMx="0.02" fuel="0.24" noise="55.94" route="!flow0.3" type="DEFAULT_VEHTYPE" waiting="0.00" lane="edge-11-8_0" pos="5.10" speed="0.00" angle="0.00" x="995.05" y="2994.90"/>
    </timestep>
    <timestep time="31.00">
        <vehicle id="flow0.0" eclass="-1" CO2="3280.05" CO="19.94" HC="0.75" NOx="6.09" PMx="0.24" fuel="1.31" noise="66.46" route="!flow0.0" type="DEFAULT_VEHTYPE" waiting="0.00" lane="edge-11-8_0" pos="405.09" speed="14.76" angle="0.00" x="995.05" y="2594.91"/>
        <vehicle id="flow0.1" eclass="-1" CO2="0.00" CO="0.00" HC="0.00" NOx="0.00" PMx="0.00" fuel="0.00" noise="63.57" route="!flow0.1" type="DEFAULT_VEHTYPE" waiting="0.00" lane="edge-11-8_0" pos="258.83" speed="14.17" angle="0.00" x="995.05" y="2741.17"/>
        <vehicle id="flow0.2" eclass="-1" CO2="4662.83" CO="50.13" HC="1.29" NOx="9.39" PMx="0.44" fuel="1.86" noise="68.08" route="!flow0.2" type="DEFAULT_VEHTYPE" waiting="0.00" lane="edge-11-8_0" pos="117.86" speed="14.80" angle="0.00" x="995.05" y="2882.14"/>
        <vehicle id="flow0.3" eclass="-1" CO2="2331.40" CO="36.73" HC="0.91" NOx="4.89" PMx="0.30" fuel="0.93" noise="68.21" route="!flow0.3" type="DEFAULT_VEHTYPE" waiting="0.00" lane="edge-11-8_0" pos="7.66" speed="2.56" angle="0.00" x="995.05" y="2992.34"/>
    </timestep>
    <timestep time="32.00">
        <vehicle id="flow0.0" eclass="-1" CO2="0.00" CO="0.00" HC="0.00" NOx="0.00" PMx="0.00" fuel="0.00" noise="64.82" route="!flow0.0" type="DEFAULT_VEHTYPE" waiting="0.00" lane="edge-11-8_0" pos="419.73" speed="14.64" angle="0.00" x="995.05" y="2580.27"/>
        <vehicle id="flow0.1" eclass="-1" CO2="2400.06" CO="3.08" HC="0.42" NOx="4.14" PMx="0.15" fuel="0.96" noise="65.13" route="!flow0.1" type="DEFAULT_VEHTYPE" waiting="0.00" lane="edge-11-8_0" pos="273.12" speed="14.29" angle="0.00" x="995.05" y="2726.88"/>
        <vehicle id="flow0.2" eclass="-1" CO2="0.00" CO="0.00" HC="0.00" NOx="0.00" PMx="0.00" fuel="0.00" noise="62.71" route="!flow0.2" type="DEFAULT_VEHTYPE" waiting="0.00" lane="edge-11-8_0" pos="131.66" speed="13.79" angle="0.00" x="995.05" y="2868.34"/>
        <vehicle id="flow0.3" eclass="-1" CO2="3916.15" CO="64.40" HC="1.42" NOx="8.60" PMx="0.54" fuel="1.56" noise="69.03" route="!flow0.3" type="DEFAULT_VEHTYPE" waiting="0.00" lane="edge-11-8_0" pos="12.74" speed="5.08" angle="0.00" x="995.05" y="2987.26"/>
    </timestep>
    <timestep time="33.00">
        <vehicle id="flow0.0" eclass="-1" CO2="2483.35" CO="4.17" HC="0.44" NOx="4.32" PMx="0.16" fuel="0.99" noise="65.47" route="!flow0.0" type="DEFAULT_VEHTYPE" waiting="0.00" lane="edge-11-8_0" pos="434.50" speed="14.77" angle="0.00" x="995.05" y="2565.50"/>
        <vehicle id="flow0.1" eclass="-1" CO2="0.00" CO="0.00" HC="0.00" NOx="0.00" PMx="0.00" fuel="0.00" noise="63.27" route="!flow0.1" type="DEFAULT_VEHTYPE" waiting="0.00" lane="edge-11-8_0" pos="286.83" speed="13.71" angle="0.00" x="995.05" y="2713.17"/>
        <vehicle id="flow0.2" eclass="-1" CO2="3930.51" CO="34.10" HC="1.01" NOx="7.63" PMx="0.33" fuel="1.57" noise="67.18" route="!flow0.2" type="DEFAULT_VEHTYPE" waiting="0.00" lane="edge-11-8_0" pos="146.25" speed="14.59" angle="0.00" x="995.05" y="2853.75"/>
        <vehicle id="flow0.3" eclass="-1" CO2="4523.77" CO="69.82" HC="1.55" NOx="9.83" PMx="0.59" fuel="1.80" noise="68.46" route="!flow0.3" type="DEFAULT_VEHTYPE" waiting="0.00" lane="edge-11-8_0" pos="19.98" speed="7.24" angle="0.00" x="995.05" y="2980.02"/>
    </timestep>
    <timestep time="34.00">
        <vehicle id="flow0.0" eclass="-1" CO2="2485.10" CO="4.10" HC="0.44" NOx="4.33" PMx="0.16" fuel="0.99" noise="65.53" route="!flow0.0" type="DEFAULT_VEHTYPE" waiting="0.00" lane="edge-11-8_0" pos="449.39" speed="14.89" angle="0.00" x="995.05" y="2550.61"/>
        <vehicle id="flow0.1" eclass="-1" CO2="3260.74" CO="20.22" HC="0.76" NOx="6.06" PMx="0.24" fuel="1.30" noise="66.25" route="!flow0.1" type="DEFAULT_VEHTYPE" waiting="0.00" lane="edge-11-8_0" pos="301.09" speed="14.26" angle="0.00" x="995.05" y="2698.91"/>
        <vehicle id="flow0.2" eclass="-1" CO2="2494.18" CO="4.40" HC="0.45" NOx="4.34" PMx="0.16" fuel="0.99" noise="65.47" route="!flow0.2" type="DEFAULT_VEHTYPE" waiting="0.00" lane="edge-11-8_0" pos="160.98" speed="14.73" angle="0.00" x="995.05" y="2839.02"/>
        <vehicle id="flow0.3" eclass="-1" CO2="6384.24" CO="106.83" HC="2.20" NOx="14.34" PMx="0.91" fuel="2.55" noise="70.44" route="!flow0.3" type="DEFAULT_VEHTYPE" waiting="0.00" lane="edge-11-8_0" pos="29.58" speed="9.60" angle="0.00" x="995.05" y="2970.42"/>
    </timestep>
    <timestep time="35.00">
        <vehicle id="flow0.0" eclass="-1" CO2="2365.73" CO="1.88" HC="0.39" NOx="4.07" PMx="0.15" fuel="0.94" noise="65.41" route="!flow0.0" type="DEFAULT_VEHTYPE" waiting="0.00" lane="edge-11-8_0" pos="464.33" speed="14.94" angle="0.00" x="995.05" y="2535.67"/>
        <vehicle id="flow0.1" eclass="-1" CO2="3587.27" CO="26.23" HC="0.86" NOx="6.80" PMx="0.28" fuel="1.43" noise="66.87" route="!flow0.1" type="DEFAULT_VEHTYPE" waiting="0.00" lane="edge-11-8_0" pos="315.99" speed="14.90" angle="0.00" x="995.05" y="2684.01"/>
        <vehicle id="flow0.2" eclass="-1" CO2="0.00" CO="0.00" HC="0.00" NOx="0.00" PMx="0.00" fuel="0.00" noise="63.40" route="!flow0.2" type="DEFAULT_VEHTYPE" waiting="0.00" lane="edge-11-8_0" pos="175.04" speed="14.06" angle="0.00" x="995.05" y="2824.96"/>
        <vehicle id="flow0.3" eclass="-1" CO2="6901.89" CO="111.88" HC="2.32" NOx="15.38" PMx="0.94" fuel="2.75" noise="70.56" route="!flow0.3" type="DEFAULT_VEHTYPE" waiting="0.00" lane="edge-11-8_0" pos="41.32" speed="11.74" angle="0.00" x="995.05" y="2958.68"/>
    </timestep>
    <timestep time="36.00">
        <vehicle id="flow0.0" eclass="-1" CO2="0.00" CO="0.00" HC="0.00" NOx="0.00" PMx="0.00" fuel="0.00" noise="64.43" route="!flow0.0" type="DEFAULT_VEHTYPE" waiting="0.00" lane="edge-11-8_0" pos="478.95" speed="14.62" angle="0.00" x="995.05" y="2521.05"/>
        <vehicle id="flow0.1" eclass="-1" CO2="0.00" CO="0.00" HC="0.00" NOx="0.00" PMx="0.00" fuel="0.00" noise="64.78" route="!flow0.1" type="DEFAULT_VEHTYPE" waiting="0.00" lane="edge-11-8_0" pos="330.71" speed="14.72" angle="0.00" x="995.05" y="2669.29"/>
        <vehicle id="flow0.2" eclass="-1" CO2="2259.24" CO="0.69" HC="0.37" NOx="3.84" PMx="0.14" fuel="0.90" noise="64.86" route="!flow0.2" type="DEFAULT_VEHTYPE" waiting="0.00" lane="edge-11-8_0" pos="189.16" speed="14.12" angle="0.00" x="995.05" y="2810.84"/>
        <vehicle id="flow0.3" eclass="-1" CO2="7665.26" CO="124.49" HC="2.55" NOx="17.10" PMx="1.03" fuel="3.06" noise="71.21" route="!flow0.3" type="DEFAULT_VEHTYPE" waiting="0.00" lane="edge-11-8_0" pos="55.12" speed="13.79" angle="0.00" x="995.05" y="2944.88"/>
    </timestep>
    <timestep time="37.00">
        <vehicle id="flow0.0" eclass="-1" CO2="0.00" CO="0.00" HC="0.00" NOx="0.00" PMx="0.00" fuel="0.00" noise="63.92" route="!flow0.0" type="DEFAULT_VEHTYPE" waiting="0.00" lane="edge-11-8_0" pos="493.15" speed="14.20" angle="0.00" x="995.05" y="2506.85"/>
        <vehicle id="flow0.1" eclass="-1" CO2="0.00" CO="0.00" HC="0.00" NOx="0.00" PMx="0.00" fuel="0.00" noise="64.50" route="!flow0.1" type="DEFAULT_VEHTYPE" waiting="0.00" lane="edge-11-8_0" pos="345.21" speed="14.49" angle="0.00" x="995.05" y="2654.79"/>
        <vehicle id="flow0.2" eclass="-1" CO2="2576.05" CO="6.35" HC="0.49" NOx="4.52" PMx="0.17" fuel="1.03" noise="65.39" route="!flow0.2" type="DEFAULT_VEHTYPE" waiting="0.00" lane="edge-11-8_0" pos="203.49" speed="14.33" angle="0.00" x="995.05" y="2796.51"/>
        <vehicle id="flow0.3" eclass="-1" CO2="2364.44" CO="2.82" HC="0.42" NOx="4.07" PMx="0.15" fuel="0.94" noise="64.91" route="!flow0.3" type="DEFAULT_VEHTYPE" waiting="0.00" lane="edge-11-8_0" pos="69.04" speed="13.93" angle="0.00" x="995.05" y="2930.96"/>
    </timestep>
    <timestep time="38.00">
        <vehicle id="flow0.0" eclass="-1" CO2="2247.27" CO="0.36" HC="0.37" NOx="3.82" PMx="0.14" fuel="0.90" noise="64.90" route="!flow0.0" type="DEFAULT_VEHTYPE" waiting="0.00" lane="edge-11-8_0" pos="507.39" speed="14.24" angle="0.00" x="995.05" y="2492.61"/>
        <vehicle id="flow0.1" eclass="-1" CO2="0.00" CO="0.00" HC="0.00" NOx="0.00" PMx="0.00" fuel="0.00" noise="64.88" route="!flow0.1" type="DEFAULT_VEHTYPE" waiting="0.00" lane="edge-11-8_0" pos="359.67" speed="14.46" angle="0.00" x="995.05" y="2640.33"/>
        <vehicle id="flow0.2" eclass="-1" CO2="2561.83" CO="5.87" HC="0.48" NOx="4.49" PMx="0.17" fuel="1.02" noise="65.46" route="!flow0.2" type="DEFAULT_VEHTYPE" waiting="0.00" lane="edge-11-8_0" pos="218.02" speed="14.53" angle="0.00" x="995.05" y="2781.98"/>
        <vehicle id="flow0.3" eclass="-1" CO2="0.00" CO="0.00" HC="0.00" NOx="0.00" PMx="0.00" fuel="0.00" noise="64.02" route="!flow0.3" type="DEFAULT_VEHTYPE" waiting="0.00" lane="edge-11-8_0" pos="82.77" speed="13.73" angle="0.00" x="995.05" y="2917.23"/>
    </timestep>
    <timestep time="39.00">
        <vehicle id="flow0.0" eclass="-1" CO2="3845.73" CO="31.68" HC="0.96" NOx="7.41" PMx="0.31" fuel="1.53" noise="67.20" route="!flow0.0" type="DEFAULT_VEHTYPE" waiting="0.00" lane="edge-11-8_0" pos="522.36" speed="14.97" angle="0.00" x="995.05" y="2477.64"/>
        <vehicle id="flow0.1" eclass="-1" CO2="2493.82" CO="4.51" HC="0.45" NOx="4.34" PMx="0.16" fuel="0.99" noise="65.41" route="!flow0.1" type="DEFAULT_VEHTYPE" waiting="0.00" lane="edge-11-8_0" pos="374.27" speed="14.61" angle="0.00" x="995.05" y="2625.73"/>
        <vehicle id="flow0.2" eclass="-1" CO2="2911.21" CO="12.31" HC="0.60" NOx="5.26" PMx="0.20" fuel="1.16" noise="66.05" route="!flow0.2" type="DEFAULT_VEHTYPE" waiting="0.00" lane="edge-11-8_0" pos="232.88" speed="14.86" angle="0.00" x="995.05" y="2767.12"/>
        <vehicle id="flow0.3" eclass="-1" CO2="2352.28" CO="2.67" HC="0.42" NOx="4.04" PMx="0.15" fuel="0.94" noise="64.86" route="!flow0.3" type="DEFAULT_VEHTYPE" waiting="0.00" lane="edge-11-8_0" pos="96.63" speed="13.86" angle="0.00" x="995.05" y="2903.37"/>
    </timestep>
    <timestep time="40.00">
        <vehicle id="flow0.0" eclass="-1" CO2="0.00" CO="0.00" HC="0.00" NOx="0.00" PMx="0.00" fuel="0.00" noise="63.33" route="!flow0.0" type="DEFAULT_VEHTYPE" waiting="0.00" lane="edge-11-8_0" pos="536.55" speed="14.19" angle="0.00" x="995.05" y="2463.45"/>
        <vehicle id="flow0.1" eclass="-1" CO2="0.00" CO="0.00" HC="0.00" NOx="0.00" PMx="0.00" fuel="0.00" noise="62.98" route="!flow0.1" type="DEFAULT_VEHTYPE" waiting="0.00" lane="edge-11-8_0" pos="388.07" speed="13.80" angle="0.00" x="995.05" y="2611.93"/>